natom:  240
displacements:
- atom:    1
  direction:
    [   1.0000000000000000,  0.0000000000000000,  1.0000000000000000 ]
  displacement:
    [   0.0006230071309443,  0.0000000000000000,  0.0099805742377276 ]
- atom:    1
  direction:
    [  -1.0000000000000000,  0.0000000000000000, -1.0000000000000000 ]
  displacement:
    [  -0.0006230071309443,  0.0000000000000000, -0.0099805742377276 ]
lattice:
- [   20.000000000000000,   0.000000000000000,   0.000000000000000 ]
- [    0.000000000000000,  20.000000000000000,   0.000000000000000 ]
- [    0.000000000000000,   0.000000000000000, 320.399999999999977 ]
atoms:
- symbol: C  # 1
  position: [   0.49999955000000,  0.49999970000000,  0.00000000000000 ]
- symbol: C  # 2
  position: [   0.49999955000000,  0.49999970000000,  0.20000000000000 ]
- symbol: C  # 3
  position: [   0.49999955000000,  0.49999970000000,  0.40000000000000 ]
- symbol: C  # 4
  position: [   0.49999955000000,  0.49999970000000,  0.60000000000000 ]
- symbol: C  # 5
  position: [   0.49999955000000,  0.49999970000000,  0.80000000000000 ]
- symbol: C  # 6
  position: [   0.49999959550000,  0.49999976450000,  0.00427690053059 ]
- symbol: C  # 7
  position: [   0.49999959550000,  0.49999976450000,  0.20427690053059 ]
- symbol: C  # 8
  position: [   0.49999959550000,  0.49999976450000,  0.40427690053059 ]
- symbol: C  # 9
  position: [   0.49999959550000,  0.49999976450000,  0.60427690053059 ]
- symbol: C  # 10
  position: [   0.49999959550000,  0.49999976450000,  0.80427690053059 ]
- symbol: C  # 11
  position: [   0.49999955000000,  0.49999970000000,  0.00833333333333 ]
- symbol: C  # 12
  position: [   0.49999955000000,  0.49999970000000,  0.20833333333333 ]
- symbol: C  # 13
  position: [   0.49999955000000,  0.49999970000000,  0.40833333333333 ]
- symbol: C  # 14
  position: [   0.49999955000000,  0.49999970000000,  0.60833333333333 ]
- symbol: C  # 15
  position: [   0.49999955000000,  0.49999970000000,  0.80833333333333 ]
- symbol: C  # 16
  position: [   0.49999959550000,  0.49999976450000,  0.01261023386392 ]
- symbol: C  # 17
  position: [   0.49999959550000,  0.49999976450000,  0.21261023386392 ]
- symbol: C  # 18
  position: [   0.49999959550000,  0.49999976450000,  0.41261023386392 ]
- symbol: C  # 19
  position: [   0.49999959550000,  0.49999976450000,  0.61261023386392 ]
- symbol: C  # 20
  position: [   0.49999959550000,  0.49999976450000,  0.81261023386392 ]
- symbol: C  # 21
  position: [   0.49999955000000,  0.49999970000000,  0.01666666666667 ]
- symbol: C  # 22
  position: [   0.49999955000000,  0.49999970000000,  0.21666666666667 ]
- symbol: C  # 23
  position: [   0.49999955000000,  0.49999970000000,  0.41666666666667 ]
- symbol: C  # 24
  position: [   0.49999955000000,  0.49999970000000,  0.61666666666667 ]
- symbol: C  # 25
  position: [   0.49999955000000,  0.49999970000000,  0.81666666666667 ]
- symbol: C  # 26
  position: [   0.49999959550000,  0.49999976450000,  0.02094356719725 ]
- symbol: C  # 27
  position: [   0.49999959550000,  0.49999976450000,  0.22094356719725 ]
- symbol: C  # 28
  position: [   0.49999959550000,  0.49999976450000,  0.42094356719725 ]
- symbol: C  # 29
  position: [   0.49999959550000,  0.49999976450000,  0.62094356719725 ]
- symbol: C  # 30
  position: [   0.49999959550000,  0.49999976450000,  0.82094356719725 ]
- symbol: C  # 31
  position: [   0.49999955000000,  0.49999970000000,  0.02500000000000 ]
- symbol: C  # 32
  position: [   0.49999955000000,  0.49999970000000,  0.22500000000000 ]
- symbol: C  # 33
  position: [   0.49999955000000,  0.49999970000000,  0.42500000000000 ]
- symbol: C  # 34
  position: [   0.49999955000000,  0.49999970000000,  0.62500000000000 ]
- symbol: C  # 35
  position: [   0.49999955000000,  0.49999970000000,  0.82500000000000 ]
- symbol: C  # 36
  position: [   0.49999959550000,  0.49999976450000,  0.02927690053059 ]
- symbol: C  # 37
  position: [   0.49999959550000,  0.49999976450000,  0.22927690053059 ]
- symbol: C  # 38
  position: [   0.49999959550000,  0.49999976450000,  0.42927690053059 ]
- symbol: C  # 39
  position: [   0.49999959550000,  0.49999976450000,  0.62927690053059 ]
- symbol: C  # 40
  position: [   0.49999959550000,  0.49999976450000,  0.82927690053059 ]
- symbol: C  # 41
  position: [   0.49999955000000,  0.49999970000000,  0.03333333333333 ]
- symbol: C  # 42
  position: [   0.49999955000000,  0.49999970000000,  0.23333333333333 ]
- symbol: C  # 43
  position: [   0.49999955000000,  0.49999970000000,  0.43333333333333 ]
- symbol: C  # 44
  position: [   0.49999955000000,  0.49999970000000,  0.63333333333333 ]
- symbol: C  # 45
  position: [   0.49999955000000,  0.49999970000000,  0.83333333333333 ]
- symbol: C  # 46
  position: [   0.49999959550000,  0.49999976450000,  0.03761023386392 ]
- symbol: C  # 47
  position: [   0.49999959550000,  0.49999976450000,  0.23761023386392 ]
- symbol: C  # 48
  position: [   0.49999959550000,  0.49999976450000,  0.43761023386392 ]
- symbol: C  # 49
  position: [   0.49999959550000,  0.49999976450000,  0.63761023386392 ]
- symbol: C  # 50
  position: [   0.49999959550000,  0.49999976450000,  0.83761023386392 ]
- symbol: C  # 51
  position: [   0.49999955000000,  0.49999970000000,  0.04166666666667 ]
- symbol: C  # 52
  position: [   0.49999955000000,  0.49999970000000,  0.24166666666667 ]
- symbol: C  # 53
  position: [   0.49999955000000,  0.49999970000000,  0.44166666666667 ]
- symbol: C  # 54
  position: [   0.49999955000000,  0.49999970000000,  0.64166666666667 ]
- symbol: C  # 55
  position: [   0.49999955000000,  0.49999970000000,  0.84166666666667 ]
- symbol: C  # 56
  position: [   0.49999959550000,  0.49999976450000,  0.04594356719725 ]
- symbol: C  # 57
  position: [   0.49999959550000,  0.49999976450000,  0.24594356719725 ]
- symbol: C  # 58
  position: [   0.49999959550000,  0.49999976450000,  0.44594356719725 ]
- symbol: C  # 59
  position: [   0.49999959550000,  0.49999976450000,  0.64594356719725 ]
- symbol: C  # 60
  position: [   0.49999959550000,  0.49999976450000,  0.84594356719725 ]
- symbol: C  # 61
  position: [   0.49999955000000,  0.49999970000000,  0.05000000000000 ]
- symbol: C  # 62
  position: [   0.49999955000000,  0.49999970000000,  0.25000000000000 ]
- symbol: C  # 63
  position: [   0.49999955000000,  0.49999970000000,  0.45000000000000 ]
- symbol: C  # 64
  position: [   0.49999955000000,  0.49999970000000,  0.65000000000000 ]
- symbol: C  # 65
  position: [   0.49999955000000,  0.49999970000000,  0.85000000000000 ]
- symbol: C  # 66
  position: [   0.49999959550000,  0.49999976450000,  0.05427690053059 ]
- symbol: C  # 67
  position: [   0.49999959550000,  0.49999976450000,  0.25427690053059 ]
- symbol: C  # 68
  position: [   0.49999959550000,  0.49999976450000,  0.45427690053059 ]
- symbol: C  # 69
  position: [   0.49999959550000,  0.49999976450000,  0.65427690053059 ]
- symbol: C  # 70
  position: [   0.49999959550000,  0.49999976450000,  0.85427690053059 ]
- symbol: C  # 71
  position: [   0.49999955000000,  0.49999970000000,  0.05833333333333 ]
- symbol: C  # 72
  position: [   0.49999955000000,  0.49999970000000,  0.25833333333333 ]
- symbol: C  # 73
  position: [   0.49999955000000,  0.49999970000000,  0.45833333333333 ]
- symbol: C  # 74
  position: [   0.49999955000000,  0.49999970000000,  0.65833333333333 ]
- symbol: C  # 75
  position: [   0.49999955000000,  0.49999970000000,  0.85833333333333 ]
- symbol: C  # 76
  position: [   0.49999959550000,  0.49999976450000,  0.06261023386392 ]
- symbol: C  # 77
  position: [   0.49999959550000,  0.49999976450000,  0.26261023386392 ]
- symbol: C  # 78
  position: [   0.49999959550000,  0.49999976450000,  0.46261023386392 ]
- symbol: C  # 79
  position: [   0.49999959550000,  0.49999976450000,  0.66261023386392 ]
- symbol: C  # 80
  position: [   0.49999959550000,  0.49999976450000,  0.86261023386392 ]
- symbol: C  # 81
  position: [   0.49999955000000,  0.49999970000000,  0.06666666666667 ]
- symbol: C  # 82
  position: [   0.49999955000000,  0.49999970000000,  0.26666666666667 ]
- symbol: C  # 83
  position: [   0.49999955000000,  0.49999970000000,  0.46666666666667 ]
- symbol: C  # 84
  position: [   0.49999955000000,  0.49999970000000,  0.66666666666667 ]
- symbol: C  # 85
  position: [   0.49999955000000,  0.49999970000000,  0.86666666666667 ]
- symbol: C  # 86
  position: [   0.49999959550000,  0.49999976450000,  0.07094356719725 ]
- symbol: C  # 87
  position: [   0.49999959550000,  0.49999976450000,  0.27094356719725 ]
- symbol: C  # 88
  position: [   0.49999959550000,  0.49999976450000,  0.47094356719725 ]
- symbol: C  # 89
  position: [   0.49999959550000,  0.49999976450000,  0.67094356719725 ]
- symbol: C  # 90
  position: [   0.49999959550000,  0.49999976450000,  0.87094356719725 ]
- symbol: C  # 91
  position: [   0.49999955000000,  0.49999970000000,  0.07500000000000 ]
- symbol: C  # 92
  position: [   0.49999955000000,  0.49999970000000,  0.27500000000000 ]
- symbol: C  # 93
  position: [   0.49999955000000,  0.49999970000000,  0.47500000000000 ]
- symbol: C  # 94
  position: [   0.49999955000000,  0.49999970000000,  0.67500000000000 ]
- symbol: C  # 95
  position: [   0.49999955000000,  0.49999970000000,  0.87500000000000 ]
- symbol: C  # 96
  position: [   0.49999959550000,  0.49999976450000,  0.07927690053059 ]
- symbol: C  # 97
  position: [   0.49999959550000,  0.49999976450000,  0.27927690053059 ]
- symbol: C  # 98
  position: [   0.49999959550000,  0.49999976450000,  0.47927690053059 ]
- symbol: C  # 99
  position: [   0.49999959550000,  0.49999976450000,  0.67927690053059 ]
- symbol: C  # 100
  position: [   0.49999959550000,  0.49999976450000,  0.87927690053059 ]
- symbol: C  # 101
  position: [   0.49999955000000,  0.49999970000000,  0.08333333333333 ]
- symbol: C  # 102
  position: [   0.49999955000000,  0.49999970000000,  0.28333333333333 ]
- symbol: C  # 103
  position: [   0.49999955000000,  0.49999970000000,  0.48333333333333 ]
- symbol: C  # 104
  position: [   0.49999955000000,  0.49999970000000,  0.68333333333333 ]
- symbol: C  # 105
  position: [   0.49999955000000,  0.49999970000000,  0.88333333333333 ]
- symbol: C  # 106
  position: [   0.49999959550000,  0.49999976450000,  0.08761023386392 ]
- symbol: C  # 107
  position: [   0.49999959550000,  0.49999976450000,  0.28761023386392 ]
- symbol: C  # 108
  position: [   0.49999959550000,  0.49999976450000,  0.48761023386392 ]
- symbol: C  # 109
  position: [   0.49999959550000,  0.49999976450000,  0.68761023386392 ]
- symbol: C  # 110
  position: [   0.49999959550000,  0.49999976450000,  0.88761023386392 ]
- symbol: C  # 111
  position: [   0.49999955000000,  0.49999970000000,  0.09166666666667 ]
- symbol: C  # 112
  position: [   0.49999955000000,  0.49999970000000,  0.29166666666667 ]
- symbol: C  # 113
  position: [   0.49999955000000,  0.49999970000000,  0.49166666666667 ]
- symbol: C  # 114
  position: [   0.49999955000000,  0.49999970000000,  0.69166666666667 ]
- symbol: C  # 115
  position: [   0.49999955000000,  0.49999970000000,  0.89166666666667 ]
- symbol: C  # 116
  position: [   0.49999959550000,  0.49999976450000,  0.09594356719725 ]
- symbol: C  # 117
  position: [   0.49999959550000,  0.49999976450000,  0.29594356719725 ]
- symbol: C  # 118
  position: [   0.49999959550000,  0.49999976450000,  0.49594356719725 ]
- symbol: C  # 119
  position: [   0.49999959550000,  0.49999976450000,  0.69594356719725 ]
- symbol: C  # 120
  position: [   0.49999959550000,  0.49999976450000,  0.89594356719725 ]
- symbol: C  # 121
  position: [   0.49999955000000,  0.49999970000000,  0.10000000000000 ]
- symbol: C  # 122
  position: [   0.49999955000000,  0.49999970000000,  0.30000000000000 ]
- symbol: C  # 123
  position: [   0.49999955000000,  0.49999970000000,  0.50000000000000 ]
- symbol: C  # 124
  position: [   0.49999955000000,  0.49999970000000,  0.70000000000000 ]
- symbol: C  # 125
  position: [   0.49999955000000,  0.49999970000000,  0.90000000000000 ]
- symbol: C  # 126
  position: [   0.49999959550000,  0.49999976450000,  0.10427690053059 ]
- symbol: C  # 127
  position: [   0.49999959550000,  0.49999976450000,  0.30427690053059 ]
- symbol: C  # 128
  position: [   0.49999959550000,  0.49999976450000,  0.50427690053059 ]
- symbol: C  # 129
  position: [   0.49999959550000,  0.49999976450000,  0.70427690053059 ]
- symbol: C  # 130
  position: [   0.49999959550000,  0.49999976450000,  0.90427690053059 ]
- symbol: C  # 131
  position: [   0.49999955000000,  0.49999970000000,  0.10833333333333 ]
- symbol: C  # 132
  position: [   0.49999955000000,  0.49999970000000,  0.30833333333333 ]
- symbol: C  # 133
  position: [   0.49999955000000,  0.49999970000000,  0.50833333333333 ]
- symbol: C  # 134
  position: [   0.49999955000000,  0.49999970000000,  0.70833333333333 ]
- symbol: C  # 135
  position: [   0.49999955000000,  0.49999970000000,  0.90833333333333 ]
- symbol: C  # 136
  position: [   0.49999959550000,  0.49999976450000,  0.11261023386392 ]
- symbol: C  # 137
  position: [   0.49999959550000,  0.49999976450000,  0.31261023386392 ]
- symbol: C  # 138
  position: [   0.49999959550000,  0.49999976450000,  0.51261023386392 ]
- symbol: C  # 139
  position: [   0.49999959550000,  0.49999976450000,  0.71261023386392 ]
- symbol: C  # 140
  position: [   0.49999959550000,  0.49999976450000,  0.91261023386392 ]
- symbol: C  # 141
  position: [   0.49999955000000,  0.49999970000000,  0.11666666666667 ]
- symbol: C  # 142
  position: [   0.49999955000000,  0.49999970000000,  0.31666666666667 ]
- symbol: C  # 143
  position: [   0.49999955000000,  0.49999970000000,  0.51666666666667 ]
- symbol: C  # 144
  position: [   0.49999955000000,  0.49999970000000,  0.71666666666667 ]
- symbol: C  # 145
  position: [   0.49999955000000,  0.49999970000000,  0.91666666666667 ]
- symbol: C  # 146
  position: [   0.49999959550000,  0.49999976450000,  0.12094356719725 ]
- symbol: C  # 147
  position: [   0.49999959550000,  0.49999976450000,  0.32094356719725 ]
- symbol: C  # 148
  position: [   0.49999959550000,  0.49999976450000,  0.52094356719725 ]
- symbol: C  # 149
  position: [   0.49999959550000,  0.49999976450000,  0.72094356719725 ]
- symbol: C  # 150
  position: [   0.49999959550000,  0.49999976450000,  0.92094356719725 ]
- symbol: C  # 151
  position: [   0.49999955000000,  0.49999970000000,  0.12500000000000 ]
- symbol: C  # 152
  position: [   0.49999955000000,  0.49999970000000,  0.32500000000000 ]
- symbol: C  # 153
  position: [   0.49999955000000,  0.49999970000000,  0.52500000000000 ]
- symbol: C  # 154
  position: [   0.49999955000000,  0.49999970000000,  0.72500000000000 ]
- symbol: C  # 155
  position: [   0.49999955000000,  0.49999970000000,  0.92500000000000 ]
- symbol: C  # 156
  position: [   0.49999959550000,  0.49999976450000,  0.12927690053059 ]
- symbol: C  # 157
  position: [   0.49999959550000,  0.49999976450000,  0.32927690053059 ]
- symbol: C  # 158
  position: [   0.49999959550000,  0.49999976450000,  0.52927690053059 ]
- symbol: C  # 159
  position: [   0.49999959550000,  0.49999976450000,  0.72927690053059 ]
- symbol: C  # 160
  position: [   0.49999959550000,  0.49999976450000,  0.92927690053059 ]
- symbol: C  # 161
  position: [   0.49999955000000,  0.49999970000000,  0.13333333333333 ]
- symbol: C  # 162
  position: [   0.49999955000000,  0.49999970000000,  0.33333333333333 ]
- symbol: C  # 163
  position: [   0.49999955000000,  0.49999970000000,  0.53333333333333 ]
- symbol: C  # 164
  position: [   0.49999955000000,  0.49999970000000,  0.73333333333333 ]
- symbol: C  # 165
  position: [   0.49999955000000,  0.49999970000000,  0.93333333333333 ]
- symbol: C  # 166
  position: [   0.49999959550000,  0.49999976450000,  0.13761023386392 ]
- symbol: C  # 167
  position: [   0.49999959550000,  0.49999976450000,  0.33761023386392 ]
- symbol: C  # 168
  position: [   0.49999959550000,  0.49999976450000,  0.53761023386392 ]
- symbol: C  # 169
  position: [   0.49999959550000,  0.49999976450000,  0.73761023386392 ]
- symbol: C  # 170
  position: [   0.49999959550000,  0.49999976450000,  0.93761023386392 ]
- symbol: C  # 171
  position: [   0.49999955000000,  0.49999970000000,  0.14166666666667 ]
- symbol: C  # 172
  position: [   0.49999955000000,  0.49999970000000,  0.34166666666667 ]
- symbol: C  # 173
  position: [   0.49999955000000,  0.49999970000000,  0.54166666666667 ]
- symbol: C  # 174
  position: [   0.49999955000000,  0.49999970000000,  0.74166666666667 ]
- symbol: C  # 175
  position: [   0.49999955000000,  0.49999970000000,  0.94166666666667 ]
- symbol: C  # 176
  position: [   0.49999959550000,  0.49999976450000,  0.14594356719725 ]
- symbol: C  # 177
  position: [   0.49999959550000,  0.49999976450000,  0.34594356719725 ]
- symbol: C  # 178
  position: [   0.49999959550000,  0.49999976450000,  0.54594356719725 ]
- symbol: C  # 179
  position: [   0.49999959550000,  0.49999976450000,  0.74594356719725 ]
- symbol: C  # 180
  position: [   0.49999959550000,  0.49999976450000,  0.94594356719725 ]
- symbol: C  # 181
  position: [   0.49999955000000,  0.49999970000000,  0.15000000000000 ]
- symbol: C  # 182
  position: [   0.49999955000000,  0.49999970000000,  0.35000000000000 ]
- symbol: C  # 183
  position: [   0.49999955000000,  0.49999970000000,  0.55000000000000 ]
- symbol: C  # 184
  position: [   0.49999955000000,  0.49999970000000,  0.75000000000000 ]
- symbol: C  # 185
  position: [   0.49999955000000,  0.49999970000000,  0.95000000000000 ]
- symbol: C  # 186
  position: [   0.49999959550000,  0.49999976450000,  0.15427690053059 ]
- symbol: C  # 187
  position: [   0.49999959550000,  0.49999976450000,  0.35427690053059 ]
- symbol: C  # 188
  position: [   0.49999959550000,  0.49999976450000,  0.55427690053059 ]
- symbol: C  # 189
  position: [   0.49999959550000,  0.49999976450000,  0.75427690053059 ]
- symbol: C  # 190
  position: [   0.49999959550000,  0.49999976450000,  0.95427690053059 ]
- symbol: C  # 191
  position: [   0.49999955000000,  0.49999970000000,  0.15833333333333 ]
- symbol: C  # 192
  position: [   0.49999955000000,  0.49999970000000,  0.35833333333333 ]
- symbol: C  # 193
  position: [   0.49999955000000,  0.49999970000000,  0.55833333333333 ]
- symbol: C  # 194
  position: [   0.49999955000000,  0.49999970000000,  0.75833333333333 ]
- symbol: C  # 195
  position: [   0.49999955000000,  0.49999970000000,  0.95833333333333 ]
- symbol: C  # 196
  position: [   0.49999959550000,  0.49999976450000,  0.16261023386392 ]
- symbol: C  # 197
  position: [   0.49999959550000,  0.49999976450000,  0.36261023386392 ]
- symbol: C  # 198
  position: [   0.49999959550000,  0.49999976450000,  0.56261023386392 ]
- symbol: C  # 199
  position: [   0.49999959550000,  0.49999976450000,  0.76261023386392 ]
- symbol: C  # 200
  position: [   0.49999959550000,  0.49999976450000,  0.96261023386392 ]
- symbol: C  # 201
  position: [   0.49999955000000,  0.49999970000000,  0.16666666666667 ]
- symbol: C  # 202
  position: [   0.49999955000000,  0.49999970000000,  0.36666666666667 ]
- symbol: C  # 203
  position: [   0.49999955000000,  0.49999970000000,  0.56666666666667 ]
- symbol: C  # 204
  position: [   0.49999955000000,  0.49999970000000,  0.76666666666667 ]
- symbol: C  # 205
  position: [   0.49999955000000,  0.49999970000000,  0.96666666666667 ]
- symbol: C  # 206
  position: [   0.49999959550000,  0.49999976450000,  0.17094356719725 ]
- symbol: C  # 207
  position: [   0.49999959550000,  0.49999976450000,  0.37094356719725 ]
- symbol: C  # 208
  position: [   0.49999959550000,  0.49999976450000,  0.57094356719725 ]
- symbol: C  # 209
  position: [   0.49999959550000,  0.49999976450000,  0.77094356719725 ]
- symbol: C  # 210
  position: [   0.49999959550000,  0.49999976450000,  0.97094356719725 ]
- symbol: C  # 211
  position: [   0.49999955000000,  0.49999970000000,  0.17500000000000 ]
- symbol: C  # 212
  position: [   0.49999955000000,  0.49999970000000,  0.37500000000000 ]
- symbol: C  # 213
  position: [   0.49999955000000,  0.49999970000000,  0.57500000000000 ]
- symbol: C  # 214
  position: [   0.49999955000000,  0.49999970000000,  0.77500000000000 ]
- symbol: C  # 215
  position: [   0.49999955000000,  0.49999970000000,  0.97500000000000 ]
- symbol: C  # 216
  position: [   0.49999959550000,  0.49999976450000,  0.17927690053059 ]
- symbol: C  # 217
  position: [   0.49999959550000,  0.49999976450000,  0.37927690053059 ]
- symbol: C  # 218
  position: [   0.49999959550000,  0.49999976450000,  0.57927690053059 ]
- symbol: C  # 219
  position: [   0.49999959550000,  0.49999976450000,  0.77927690053059 ]
- symbol: C  # 220
  position: [   0.49999959550000,  0.49999976450000,  0.97927690053059 ]
- symbol: C  # 221
  position: [   0.49999955000000,  0.49999970000000,  0.18333333333333 ]
- symbol: C  # 222
  position: [   0.49999955000000,  0.49999970000000,  0.38333333333333 ]
- symbol: C  # 223
  position: [   0.49999955000000,  0.49999970000000,  0.58333333333333 ]
- symbol: C  # 224
  position: [   0.49999955000000,  0.49999970000000,  0.78333333333333 ]
- symbol: C  # 225
  position: [   0.49999955000000,  0.49999970000000,  0.98333333333333 ]
- symbol: C  # 226
  position: [   0.49999959550000,  0.49999976450000,  0.18761023386392 ]
- symbol: C  # 227
  position: [   0.49999959550000,  0.49999976450000,  0.38761023386392 ]
- symbol: C  # 228
  position: [   0.49999959550000,  0.49999976450000,  0.58761023386392 ]
- symbol: C  # 229
  position: [   0.49999959550000,  0.49999976450000,  0.78761023386392 ]
- symbol: C  # 230
  position: [   0.49999959550000,  0.49999976450000,  0.98761023386392 ]
- symbol: C  # 231
  position: [   0.49999955000000,  0.49999970000000,  0.19166666666667 ]
- symbol: C  # 232
  position: [   0.49999955000000,  0.49999970000000,  0.39166666666667 ]
- symbol: C  # 233
  position: [   0.49999955000000,  0.49999970000000,  0.59166666666667 ]
- symbol: C  # 234
  position: [   0.49999955000000,  0.49999970000000,  0.79166666666667 ]
- symbol: C  # 235
  position: [   0.49999955000000,  0.49999970000000,  0.99166666666667 ]
- symbol: C  # 236
  position: [   0.49999959550000,  0.49999976450000,  0.19594356719725 ]
- symbol: C  # 237
  position: [   0.49999959550000,  0.49999976450000,  0.39594356719725 ]
- symbol: C  # 238
  position: [   0.49999959550000,  0.49999976450000,  0.59594356719725 ]
- symbol: C  # 239
  position: [   0.49999959550000,  0.49999976450000,  0.79594356719725 ]
- symbol: C  # 240
  position: [   0.49999959550000,  0.49999976450000,  0.99594356719725 ]
