   2  240
1 1
     3.845969862926369    -0.000000000000000    -0.000000000000008
     0.000000000000000     3.845969862926369     0.000000000000008
    -0.000000000000000    -0.000000000000000    48.215874469018857
1 2
     0.000106981118978    -0.000000000000000    -0.000000000000000
     0.000000000000000     0.000106981118978    -0.000000000000000
     0.000000000000000     0.000000000000000    -0.001917266937173
1 3
    -0.000294298397070    -0.000000000000000    -0.000000000000000
     0.000000000000000    -0.000294298397070     0.000000000000000
    -0.000000000000000     0.000000000000000    -0.000439396060341
1 4
    -0.000294298397070    -0.000000000000000    -0.000000000000000
     0.000000000000000    -0.000294298397070    -0.000000000000000
    -0.000000000000000     0.000000000000000    -0.000464444719271
1 5
     0.000106981118978    -0.000000000000000    -0.000000000000000
     0.000000000000000     0.000106981118978    -0.000000000000000
    -0.000000000000000     0.000000000000000    -0.001917266937173
1 6
    -1.956130659616730    -0.000000000000000    -0.000000000000003
     0.000000000000000    -1.956130659616730    -0.000000000000001
     0.000000000000000     0.000000000000000   -13.596175149126015
1 7
    -0.000294298397070     0.000000000000000     0.000000000000000
    -0.000000000000000    -0.000294298397070    -0.000000000000000
     0.000000000000000     0.000000000000000     0.001965275196877
1 8
    -0.000695577913118     0.000000000000000     0.000000000000000
    -0.000000000000000    -0.000695577913118    -0.000000000000000
     0.000000000000000     0.000000000000000     0.000712842250409
1 9
    -0.000294298397070     0.000000000000000     0.000000000000000
    -0.000000000000000    -0.000294298397070     0.000000000000000
     0.000000000000000     0.000000000000000     0.000712842250409
1 10
    -0.000294298397070    -0.000000000000000    -0.000000000000000
     0.000000000000000    -0.000294298397070     0.000000000000000
     0.000000000000000     0.000000000000000     0.002391102398677
1 11
    -0.191704627552133     0.000000000000000    -0.000000000000001
    -0.000000000000000    -0.191704627552133    -0.000000000000002
    -0.000000000000000     0.000000000000000    -8.199692069384632
1 12
     0.000508260635027    -0.000000000000000    -0.000000000000000
     0.000000000000000     0.000508260635027    -0.000000000000000
    -0.000000000000000    -0.000000000000000    -0.001591634371092
1 13
     0.000508260635027    -0.000000000000000     0.000000000000000
     0.000000000000000     0.000508260635027     0.000000000000000
    -0.000000000000000    -0.000000000000000    -0.000464444719271
1 14
    -0.000294298397070    -0.000000000000000     0.000000000000000
     0.000000000000000    -0.000294298397070     0.000000000000000
    -0.000000000000000     0.000000000000000    -0.000464444719271
1 15
     0.000106981118978    -0.000000000000000    -0.000000000000000
     0.000000000000000     0.000106981118978     0.000000000000000
    -0.000000000000000    -0.000000000000000    -0.002393191456831
1 16
     0.213988963172749    -0.000000000000000     0.000000000000002
     0.000000000000000     0.213988963172749     0.000000000000000
     0.000000000000000    -0.000000000000000     4.454965567704973
1 17
     0.000106981118978     0.000000000000000     0.000000000000000
    -0.000000000000000     0.000106981118978     0.000000000000000
     0.000000000000000     0.000000000000000     0.001664691289725
1 18
     0.000106981118978    -0.000000000000000    -0.000000000000000
     0.000000000000000     0.000106981118978    -0.000000000000000
     0.000000000000000     0.000000000000000     0.000712842250409
1 19
    -0.000294298397070     0.000000000000000     0.000000000000000
    -0.000000000000000    -0.000294298397070     0.000000000000000
     0.000000000000000     0.000000000000000     0.000687793591480
1 20
    -0.000695577913118     0.000000000000000    -0.000000000000000
    -0.000000000000000    -0.000695577913118     0.000000000000000
     0.000000000000000     0.000000000000000     0.002892075577264
1 21
     0.024585031597928     0.000000000000000     0.000000000000001
    -0.000000000000000     0.024585031597928    -0.000000000000001
     0.000000000000000    -0.000000000000000    -2.906309269796499
1 22
     0.000106981118978    -0.000000000000000    -0.000000000000000
     0.000000000000000     0.000106981118978    -0.000000000000000
    -0.000000000000000    -0.000000000000000    -0.001316099122869
1 23
     0.000508260635027     0.000000000000000    -0.000000000000000
    -0.000000000000000     0.000508260635027     0.000000000000000
    -0.000000000000000    -0.000000000000000    -0.000439396060341
1 24
     0.000508260635027     0.000000000000000    -0.000000000000000
    -0.000000000000000     0.000508260635027     0.000000000000000
    -0.000000000000000    -0.000000000000000    -0.000439396060341
1 25
     0.000106981118978    -0.000000000000000     0.000000000000000
     0.000000000000000     0.000106981118978     0.000000000000000
    -0.000000000000000    -0.000000000000000    -0.002944261953277
1 26
    -0.017148038071101     0.000000000000000     0.000000000000000
    -0.000000000000000    -0.017148038071101    -0.000000000000000
    -0.000000000000000     0.000000000000000     1.939378848747178
1 27
    -0.000294298397070    -0.000000000000000     0.000000000000000
     0.000000000000000    -0.000294298397070     0.000000000000000
     0.000000000000000    -0.000000000000000     0.001489350677220
1 28
     0.000106981118978    -0.000000000000000     0.000000000000000
     0.000000000000000     0.000106981118978    -0.000000000000000
     0.000000000000000    -0.000000000000000     0.000662744932551
1 29
     0.000106981118978    -0.000000000000000     0.000000000000000
     0.000000000000000     0.000106981118978     0.000000000000000
     0.000000000000000    -0.000000000000000     0.000687793591480
1 30
     0.000106981118978    -0.000000000000000    -0.000000000000000
     0.000000000000000     0.000106981118978     0.000000000000000
     0.000000000000000    -0.000000000000000     0.003543340709427
1 31
    -0.003504534525457     0.000000000000000     0.000000000000000
    -0.000000000000000    -0.003504534525457    -0.000000000000000
     0.000000000000000     0.000000000000000    -1.424029828992674
1 32
     0.000508260635027    -0.000000000000000     0.000000000000000
     0.000000000000000     0.000508260635027     0.000000000000000
    -0.000000000000000    -0.000000000000000    -0.001140758510363
1 33
     0.000508260635027    -0.000000000000000     0.000000000000000
     0.000000000000000     0.000508260635027    -0.000000000000000
    -0.000000000000000    -0.000000000000000    -0.000464444719271
1 34
     0.000508260635027    -0.000000000000000    -0.000000000000000
     0.000000000000000     0.000508260635027    -0.000000000000000
    -0.000000000000000    -0.000000000000000    -0.000489493378200
1 35
     0.000909540151075    -0.000000000000000     0.000000000000000
     0.000000000000000     0.000909540151075     0.000000000000000
    -0.000000000000000    -0.000000000000000    -0.003695721721158
1 36
    -0.001096857429167     0.000000000000000     0.000000000000000
    -0.000000000000000    -0.001096857429167    -0.000000000000000
     0.000000000000000     0.000000000000000     1.045492406194027
1 37
    -0.000695577913118     0.000000000000000     0.000000000000000
    -0.000000000000000    -0.000695577913118    -0.000000000000000
     0.000000000000000     0.000000000000000     0.001263912746855
1 38
    -0.000294298397070     0.000000000000000     0.000000000000000
    -0.000000000000000    -0.000294298397070     0.000000000000000
     0.000000000000000     0.000000000000000     0.000687793591480
1 39
    -0.000294298397070     0.000000000000000     0.000000000000000
    -0.000000000000000    -0.000294298397070     0.000000000000000
     0.000000000000000     0.000000000000000     0.000712842250409
1 40
    -0.000695577913118     0.000000000000000     0.000000000000000
    -0.000000000000000    -0.000695577913118     0.000000000000000
     0.000000000000000     0.000000000000000     0.004394995113025
1 41
    -0.001096857429167    -0.000000000000000     0.000000000000000
     0.000000000000000    -0.001096857429167     0.000000000000000
    -0.000000000000000     0.000000000000000    -0.812717307821637
1 42
     0.000106981118978    -0.000000000000000    -0.000000000000000
     0.000000000000000     0.000106981118978    -0.000000000000000
    -0.000000000000000     0.000000000000000    -0.000990466556787
1 43
     0.000106981118978    -0.000000000000000     0.000000000000000
     0.000000000000000     0.000106981118978     0.000000000000000
    -0.000000000000000     0.000000000000000    -0.000489493378200
1 44
    -0.000294298397070    -0.000000000000000     0.000000000000000
     0.000000000000000    -0.000294298397070     0.000000000000000
    -0.000000000000000     0.000000000000000    -0.000489493378200
1 45
     0.000106981118978    -0.000000000000000     0.000000000000000
     0.000000000000000     0.000106981118978     0.000000000000000
    -0.000000000000000     0.000000000000000    -0.004722716737262
1 46
    -0.001899416461263    -0.000000000000000    -0.000000000000000
     0.000000000000000    -0.001899416461263     0.000000000000000
     0.000000000000000     0.000000000000000     0.625551639243302
1 47
    -0.000294298397070     0.000000000000000     0.000000000000000
    -0.000000000000000    -0.000294298397070    -0.000000000000000
     0.000000000000000     0.000000000000000     0.001163718111138
1 48
    -0.000294298397070    -0.000000000000000    -0.000000000000000
     0.000000000000000    -0.000294298397070    -0.000000000000000
     0.000000000000000     0.000000000000000     0.000712842250409
1 49
    -0.000294298397070     0.000000000000000    -0.000000000000000
    -0.000000000000000    -0.000294298397070     0.000000000000000
     0.000000000000000     0.000000000000000     0.000712842250409
1 50
    -0.000695577913118    -0.000000000000000    -0.000000000000000
     0.000000000000000    -0.000695577913118    -0.000000000000000
     0.000000000000000     0.000000000000000     0.005472087446988
1 51
     0.000106981118978     0.000000000000000    -0.000000000000000
    -0.000000000000000     0.000106981118978     0.000000000000000
    -0.000000000000000    -0.000000000000000    -0.502189083074357
1 52
     0.000508260635027    -0.000000000000000     0.000000000000000
     0.000000000000000     0.000508260635027    -0.000000000000000
    -0.000000000000000    -0.000000000000000    -0.000865223262140
1 53
     0.000508260635027     0.000000000000000    -0.000000000000000
    -0.000000000000000     0.000508260635027     0.000000000000000
    -0.000000000000000    -0.000000000000000    -0.000414347401412
1 54
     0.000508260635027     0.000000000000000    -0.000000000000000
    -0.000000000000000     0.000508260635027     0.000000000000000
    -0.000000000000000    -0.000000000000000    -0.000439396060341
1 55
     0.000508260635027     0.000000000000000    -0.000000000000000
    -0.000000000000000     0.000508260635027    -0.000000000000000
    -0.000000000000000    -0.000000000000000    -0.005925052365871
1 56
     0.000508260635027    -0.000000000000000     0.000000000000000
     0.000000000000000     0.000508260635027    -0.000000000000000
     0.000000000000000    -0.000000000000000     0.398134864823640
1 57
    -0.000695577913118    -0.000000000000000    -0.000000000000000
     0.000000000000000    -0.000695577913118    -0.000000000000000
     0.000000000000000    -0.000000000000000     0.001063523475420
1 58
     0.000106981118978    -0.000000000000000     0.000000000000000
     0.000000000000000     0.000106981118978     0.000000000000000
     0.000000000000000    -0.000000000000000     0.000687793591480
1 59
     0.000106981118978     0.000000000000000     0.000000000000000
    -0.000000000000000     0.000106981118978    -0.000000000000000
    -0.000000000000000    -0.000000000000000     0.000712842250409
1 60
     0.000106981118978     0.000000000000000     0.000000000000000
    -0.000000000000000     0.000106981118978     0.000000000000000
     0.000000000000000    -0.000000000000000     0.007000055641679
1 61
    -0.000695577913118    -0.000000000000000    -0.000000000000000
     0.000000000000000    -0.000695577913118    -0.000000000000000
    -0.000000000000000     0.000000000000000    -0.326547886661683
1 62
     0.000909540151075    -0.000000000000000    -0.000000000000000
     0.000000000000000     0.000909540151075     0.000000000000000
    -0.000000000000000    -0.000000000000000    -0.000790077285352
1 63
     0.000508260635027     0.000000000000000    -0.000000000000000
    -0.000000000000000     0.000508260635027    -0.000000000000000
    -0.000000000000000    -0.000000000000000    -0.000489493378200
1 64
     0.000508260635027    -0.000000000000000    -0.000000000000000
     0.000000000000000     0.000508260635027    -0.000000000000000
    -0.000000000000000    -0.000000000000000    -0.000489493378200
1 65
     0.000508260635027    -0.000000000000000    -0.000000000000000
     0.000000000000000     0.000508260635027     0.000000000000000
    -0.000000000000000    -0.000000000000000    -0.007628361173068
1 66
    -0.000294298397070     0.000000000000000     0.000000000000000
    -0.000000000000000    -0.000294298397070     0.000000000000000
     0.000000000000000     0.000000000000000     0.264124539551562
1 67
    -0.000294298397070     0.000000000000000    -0.000000000000000
    -0.000000000000000    -0.000294298397070    -0.000000000000000
     0.000000000000000     0.000000000000000     0.000963328839703
1 68
    -0.000294298397070     0.000000000000000     0.000000000000000
    -0.000000000000000    -0.000294298397070     0.000000000000000
     0.000000000000000     0.000000000000000     0.000687793591480
1 69
    -0.000294298397070     0.000000000000000     0.000000000000000
    -0.000000000000000    -0.000294298397070    -0.000000000000000
     0.000000000000000     0.000000000000000     0.000712842250409
1 70
    -0.000695577913118     0.000000000000000     0.000000000000000
    -0.000000000000000    -0.000695577913118     0.000000000000000
     0.000000000000000     0.000000000000000     0.009003948356028
1 71
    -0.000695577913118    -0.000000000000000     0.000000000000000
     0.000000000000000    -0.000695577913118    -0.000000000000000
    -0.000000000000000     0.000000000000000    -0.219965842917255
1 72
    -0.000294298397070    -0.000000000000000    -0.000000000000000
     0.000000000000000    -0.000294298397070     0.000000000000000
    -0.000000000000000     0.000000000000000    -0.000739979967493
1 73
    -0.000294298397070    -0.000000000000000     0.000000000000000
     0.000000000000000    -0.000294298397070     0.000000000000000
    -0.000000000000000     0.000000000000000    -0.000489493378200
1 74
     0.000106981118978    -0.000000000000000     0.000000000000000
     0.000000000000000     0.000106981118978    -0.000000000000000
    -0.000000000000000     0.000000000000000    -0.000514542037129
1 75
     0.000106981118978    -0.000000000000000    -0.000000000000000
     0.000000000000000     0.000106981118978    -0.000000000000000
    -0.000000000000000     0.000000000000000    -0.009857691817781
1 76
    -0.000695577913118     0.000000000000000     0.000000000000000
    -0.000000000000000    -0.000695577913118    -0.000000000000000
     0.000000000000000     0.000000000000000     0.180612310681075
1 77
    -0.000294298397070     0.000000000000000     0.000000000000000
    -0.000000000000000    -0.000294298397070    -0.000000000000000
     0.000000000000000     0.000000000000000     0.000913231521844
1 78
    -0.000294298397070    -0.000000000000000    -0.000000000000000
     0.000000000000000    -0.000294298397070    -0.000000000000000
     0.000000000000000     0.000000000000000     0.000712842250409
1 79
     0.000106981118978     0.000000000000000    -0.000000000000000
    -0.000000000000000     0.000106981118978     0.000000000000000
     0.000000000000000     0.000000000000000     0.000712842250409
1 80
    -0.000695577913118    -0.000000000000000     0.000000000000000
     0.000000000000000    -0.000695577913118    -0.000000000000000
     0.000000000000000     0.000000000000000     0.011659106202540
1 81
    -0.001096857429167    -0.000000000000000     0.000000000000000
     0.000000000000000    -0.001096857429167    -0.000000000000000
    -0.000000000000000    -0.000000000000000    -0.151933685265112
1 82
     0.000508260635027    -0.000000000000000    -0.000000000000000
     0.000000000000000     0.000508260635027    -0.000000000000000
    -0.000000000000000    -0.000000000000000    -0.000639785331776
1 83
     0.000508260635027     0.000000000000000    -0.000000000000000
    -0.000000000000000     0.000508260635027     0.000000000000000
    -0.000000000000000    -0.000000000000000    -0.000414347401412
1 84
     0.000508260635027     0.000000000000000    -0.000000000000000
    -0.000000000000000     0.000508260635027     0.000000000000000
    -0.000000000000000    -0.000000000000000    -0.000439396060341
1 85
     0.000508260635027    -0.000000000000000     0.000000000000000
     0.000000000000000     0.000508260635027    -0.000000000000000
    -0.000000000000000    -0.000000000000000    -0.012963725525021
1 86
     0.000106981118978     0.000000000000000     0.000000000000000
    -0.000000000000000     0.000106981118978     0.000000000000000
     0.000000000000000    -0.000000000000000     0.126131477509716
1 87
    -0.000695577913118    -0.000000000000000     0.000000000000000
     0.000000000000000    -0.000695577913118    -0.000000000000000
     0.000000000000000    -0.000000000000000     0.000863134203986
1 88
     0.000106981118978    -0.000000000000000     0.000000000000000
     0.000000000000000     0.000106981118978     0.000000000000000
     0.000000000000000    -0.000000000000000     0.000687793591480
1 89
    -0.000294298397070     0.000000000000000     0.000000000000000
    -0.000000000000000    -0.000294298397070    -0.000000000000000
    -0.000000000000000    -0.000000000000000     0.000712842250409
1 90
     0.000106981118978     0.000000000000000    -0.000000000000000
    -0.000000000000000     0.000106981118978    -0.000000000000000
     0.000000000000000     0.000000000000000     0.015190967111580
1 91
    -0.000294298397070     0.000000000000000    -0.000000000000000
    -0.000000000000000    -0.000294298397070     0.000000000000000
    -0.000000000000000     0.000000000000000    -0.107071537122628
1 92
     0.000508260635027    -0.000000000000000    -0.000000000000000
     0.000000000000000     0.000508260635027    -0.000000000000000
    -0.000000000000000    -0.000000000000000    -0.000639785331776
1 93
     0.000508260635027    -0.000000000000000    -0.000000000000000
     0.000000000000000     0.000508260635027    -0.000000000000000
    -0.000000000000000    -0.000000000000000    -0.000489493378200
1 94
     0.000508260635027    -0.000000000000000    -0.000000000000000
     0.000000000000000     0.000508260635027     0.000000000000000
    -0.000000000000000    -0.000000000000000    -0.000539590696059
1 95
     0.000106981118978    -0.000000000000000    -0.000000000000000
     0.000000000000000     0.000106981118978    -0.000000000000000
    -0.000000000000000    -0.000000000000000    -0.017021608271578
1 96
     0.000106981118978     0.000000000000000    -0.000000000000000
    -0.000000000000000     0.000106981118978     0.000000000000000
     0.000000000000000     0.000000000000000     0.089760824744285
1 97
    -0.000294298397070     0.000000000000000     0.000000000000000
    -0.000000000000000    -0.000294298397070     0.000000000000000
     0.000000000000000     0.000000000000000     0.000813036886127
1 98
    -0.000294298397070     0.000000000000000     0.000000000000000
    -0.000000000000000    -0.000294298397070     0.000000000000000
     0.000000000000000     0.000000000000000     0.000687793591480
1 99
    -0.000294298397070     0.000000000000000     0.000000000000000
    -0.000000000000000    -0.000294298397070     0.000000000000000
     0.000000000000000     0.000000000000000     0.000737890909339
1 100
    -0.000695577913118     0.000000000000000     0.000000000000000
    -0.000000000000000    -0.000695577913118    -0.000000000000000
     0.000000000000000     0.000000000000000     0.020025358284946
1 101
    -0.000695577913118     0.000000000000000    -0.000000000000000
    -0.000000000000000    -0.000695577913118     0.000000000000000
    -0.000000000000000     0.000000000000000    -0.076712562500243
1 102
     0.000106981118978    -0.000000000000000    -0.000000000000000
     0.000000000000000     0.000106981118978    -0.000000000000000
    -0.000000000000000     0.000000000000000    -0.000589688013917
1 103
    -0.000294298397070    -0.000000000000000     0.000000000000000
     0.000000000000000    -0.000294298397070     0.000000000000000
    -0.000000000000000     0.000000000000000    -0.000489493378200
1 104
     0.000106981118978    -0.000000000000000    -0.000000000000000
     0.000000000000000     0.000106981118978    -0.000000000000000
    -0.000000000000000     0.000000000000000    -0.000564639354988
1 105
    -0.000294298397070    -0.000000000000000    -0.000000000000000
     0.000000000000000    -0.000294298397070    -0.000000000000000
    -0.000000000000000     0.000000000000000    -0.022557361894966
1 106
    -0.000294298397070     0.000000000000000    -0.000000000000000
    -0.000000000000000    -0.000294298397070     0.000000000000000
     0.000000000000000     0.000000000000000     0.064737214473854
1 107
    -0.000294298397070    -0.000000000000000     0.000000000000000
     0.000000000000000    -0.000294298397070    -0.000000000000000
     0.000000000000000     0.000000000000000     0.000813036886127
1 108
     0.000106981118978    -0.000000000000000     0.000000000000000
     0.000000000000000     0.000106981118978    -0.000000000000000
     0.000000000000000     0.000000000000000     0.000687793591480
1 109
     0.000106981118978     0.000000000000000    -0.000000000000000
    -0.000000000000000     0.000106981118978     0.000000000000000
     0.000000000000000     0.000000000000000     0.000762939568268
1 110
    -0.000695577913118     0.000000000000000    -0.000000000000000
    -0.000000000000000    -0.000695577913118     0.000000000000000
     0.000000000000000     0.000000000000000     0.026613155583368
1 111
     0.000106981118978    -0.000000000000000    -0.000000000000000
     0.000000000000000     0.000106981118978     0.000000000000000
    -0.000000000000000    -0.000000000000000    -0.055646640340651
1 112
     0.000106981118978     0.000000000000000    -0.000000000000000
    -0.000000000000000     0.000106981118978    -0.000000000000000
    -0.000000000000000    -0.000000000000000    -0.000539590696059
1 113
     0.000508260635027    -0.000000000000000    -0.000000000000000
     0.000000000000000     0.000508260635027     0.000000000000000
    -0.000000000000000    -0.000000000000000    -0.000414347401412
1 114
     0.000508260635027     0.000000000000000    -0.000000000000000
    -0.000000000000000     0.000508260635027    -0.000000000000000
    -0.000000000000000    -0.000000000000000    -0.000489493378200
1 115
    -0.000294298397070     0.000000000000000     0.000000000000000
    -0.000000000000000    -0.000294298397070     0.000000000000000
    -0.000000000000000    -0.000000000000000    -0.030247300186280
1 116
    -0.000695577913118    -0.000000000000000    -0.000000000000000
     0.000000000000000    -0.000695577913118    -0.000000000000000
     0.000000000000000    -0.000000000000000     0.047353445176878
1 117
    -0.000695577913118    -0.000000000000000     0.000000000000000
     0.000000000000000    -0.000695577913118    -0.000000000000000
     0.000000000000000    -0.000000000000000     0.000762939568268
1 118
     0.000106981118978    -0.000000000000000     0.000000000000000
     0.000000000000000     0.000106981118978    -0.000000000000000
     0.000000000000000    -0.000000000000000     0.000662744932551
1 119
     0.000106981118978     0.000000000000000     0.000000000000000
    -0.000000000000000     0.000106981118978     0.000000000000000
    -0.000000000000000    -0.000000000000000     0.000737890909339
1 120
    -0.000695577913118     0.000000000000000    -0.000000000000000
    -0.000000000000000    -0.000695577913118    -0.000000000000000
     0.000000000000000    -0.000000000000000     0.035630672797938
1 121
    -0.000695577913118    -0.000000000000000    -0.000000000000000
     0.000000000000000    -0.000695577913118     0.000000000000000
    -0.000000000000000    -0.000000000000000    -0.040842882913399
1 122
     0.000508260635027    -0.000000000000000    -0.000000000000000
     0.000000000000000     0.000508260635027     0.000000000000000
    -0.000000000000000    -0.000000000000000    -0.000589688013917
1 123
     0.000508260635027    -0.000000000000000    -0.000000000000000
     0.000000000000000     0.000508260635027    -0.000000000000000
    -0.000000000000000    -0.000000000000000    -0.000489493378200
1 124
     0.000508260635027    -0.000000000000000     0.000000000000000
     0.000000000000000     0.000508260635027    -0.000000000000000
    -0.000000000000000    -0.000000000000000    -0.000564639354988
1 125
    -0.000294298397070    -0.000000000000000    -0.000000000000000
     0.000000000000000    -0.000294298397070    -0.000000000000000
    -0.000000000000000    -0.000000000000000    -0.040892980231258
1 126
    -0.000695577913118    -0.000000000000000    -0.000000000000000
     0.000000000000000    -0.000695577913118    -0.000000000000000
     0.000000000000000     0.000000000000000     0.034929310347916
1 127
    -0.000695577913118     0.000000000000000     0.000000000000000
    -0.000000000000000    -0.000695577913118     0.000000000000000
     0.000000000000000     0.000000000000000     0.000737890909339
1 128
    -0.000294298397070     0.000000000000000     0.000000000000000
    -0.000000000000000    -0.000294298397070     0.000000000000000
     0.000000000000000     0.000000000000000     0.000712842250409
1 129
    -0.000294298397070     0.000000000000000     0.000000000000000
    -0.000000000000000    -0.000294298397070     0.000000000000000
     0.000000000000000     0.000000000000000     0.000762939568268
1 130
    -0.000294298397070     0.000000000000000     0.000000000000000
    -0.000000000000000    -0.000294298397070    -0.000000000000000
     0.000000000000000     0.000000000000000     0.048155002262618
1 131
    -0.000294298397070    -0.000000000000000     0.000000000000000
     0.000000000000000    -0.000294298397070    -0.000000000000000
    -0.000000000000000     0.000000000000000    -0.030247300186280
1 132
     0.000106981118978    -0.000000000000000    -0.000000000000000
     0.000000000000000     0.000106981118978     0.000000000000000
    -0.000000000000000     0.000000000000000    -0.000539590696059
1 133
    -0.000294298397070    -0.000000000000000     0.000000000000000
     0.000000000000000    -0.000294298397070     0.000000000000000
    -0.000000000000000     0.000000000000000    -0.000489493378200
1 134
    -0.000294298397070    -0.000000000000000    -0.000000000000000
     0.000000000000000    -0.000294298397070    -0.000000000000000
    -0.000000000000000     0.000000000000000    -0.000589688013917
1 135
    -0.000695577913118    -0.000000000000000     0.000000000000000
     0.000000000000000    -0.000695577913118     0.000000000000000
    -0.000000000000000     0.000000000000000    -0.055646640340651
1 136
    -0.001096857429167    -0.000000000000000     0.000000000000000
     0.000000000000000    -0.001096857429167     0.000000000000000
     0.000000000000000     0.000000000000000     0.026112182404781
1 137
     0.000106981118978    -0.000000000000000    -0.000000000000000
     0.000000000000000     0.000106981118978     0.000000000000000
     0.000000000000000     0.000000000000000     0.000787988227197
1 138
     0.000106981118978    -0.000000000000000    -0.000000000000000
     0.000000000000000     0.000106981118978    -0.000000000000000
     0.000000000000000     0.000000000000000     0.000712842250409
1 139
     0.000106981118978     0.000000000000000    -0.000000000000000
    -0.000000000000000     0.000106981118978     0.000000000000000
     0.000000000000000     0.000000000000000     0.000838085545056
1 140
     0.000508260635027     0.000000000000000     0.000000000000000
    -0.000000000000000     0.000508260635027    -0.000000000000000
     0.000000000000000     0.000000000000000     0.066014696079252
1 141
     0.000106981118978    -0.000000000000000    -0.000000000000000
     0.000000000000000     0.000106981118978     0.000000000000000
    -0.000000000000000    -0.000000000000000    -0.022682605189613
1 142
     0.000508260635027     0.000000000000000     0.000000000000000
    -0.000000000000000     0.000508260635027    -0.000000000000000
    -0.000000000000000    -0.000000000000000    -0.000464444719271
1 143
     0.000508260635027     0.000000000000000    -0.000000000000000
    -0.000000000000000     0.000508260635027     0.000000000000000
    -0.000000000000000    -0.000000000000000    -0.000414347401412
1 144
     0.000508260635027     0.000000000000000    -0.000000000000000
    -0.000000000000000     0.000508260635027    -0.000000000000000
    -0.000000000000000    -0.000000000000000    -0.000589688013917
1 145
    -0.001498136945215     0.000000000000000     0.000000000000000
    -0.000000000000000    -0.001498136945215    -0.000000000000000
    -0.000000000000000    -0.000000000000000    -0.076737611159173
1 146
     0.000106981118978     0.000000000000000    -0.000000000000000