nqpoint: 3      
natom:   2      
reciprocal_lattice:
- [   0.02645886,   0.00000000,   0.00000000 ] # a*
- [   0.00000000,   0.02645886,   0.00000000 ] # b*
- [   0.00000000,   0.00000000,   0.19819371 ] # c*
phonon:
- q-position: [    0.0000000,    0.0000000,    0.0000000 ]
  dynamical_matrix:
  - [    0.2926394024,   -0.0000000000,    0.0000000000,    0.0000000000,   -0.0000000000,    0.0000000000,   -0.2926399370,    0.0000000000,   -0.0000000000,    0.0000000000,    0.0000000000,    0.0000000000 ]
  - [    0.0000000000,   -0.0000000000,    0.2926394024,   -0.0000000000,    0.0000000000,    0.0000000000,    0.0000000000,    0.0000000000,   -0.2926399370,    0.0000000000,    0.0000000000,    0.0000000000 ]
  - [   -0.0000000000,   -0.0000000000,    0.0000000000,   -0.0000000000,    1.5222753188,   -0.0000000000,    0.0000000000,    0.0000000000,    0.0000000000,    0.0000000000,   -1.5222753355,    0.0000000000 ]
  - [   -0.2926399370,   -0.0000000000,    0.0000000000,   -0.0000000000,    0.0000000000,   -0.0000000000,    0.2926394024,   -0.0000000000,    0.0000000000,    0.0000000000,   -0.0000000000,    0.0000000000 ]
  - [   -0.0000000000,   -0.0000000000,   -0.2926399370,   -0.0000000000,    0.0000000000,   -0.0000000000,    0.0000000000,   -0.0000000000,    0.2926394024,   -0.0000000000,    0.0000000000,    0.0000000000 ]
  - [    0.0000000000,   -0.0000000000,    0.0000000000,   -0.0000000000,   -1.5222753355,   -0.0000000000,   -0.0000000000,   -0.0000000000,    0.0000000000,   -0.0000000000,    1.5222753188,   -0.0000000000 ]
  band:
  - # 1
    frequency:   -0.0157126519
  - # 2
    frequency:   -0.0157126519
  - # 3
    frequency:   -0.0027758961
  - # 4
    frequency:   16.4411335715
  - # 5
    frequency:   16.4411335715
  - # 6
    frequency:   37.4983158552

- q-position: [    0.2500000,    0.2500000,    0.2500000 ]
  dynamical_matrix:
  - [    0.3159933782,   -0.0000000000,    0.0000000000,    0.0000000000,   -0.0000000000,   -0.0000000000,   -0.2441450010,   -0.0055227274,    0.0000000000,    0.0000000000,    0.0000000000,   -0.0000000000 ]
  - [    0.0000000000,   -0.0000000000,    0.3159933782,   -0.0000000000,    0.0000000000,   -0.0000000000,   -0.0000000000,   -0.0000000000,   -0.2441450010,   -0.0055227274,    0.0000000000,   -0.0000000000 ]
  - [   -0.0000000000,    0.0000000000,    0.0000000000,    0.0000000000,    4.4005009162,   -0.0000000000,    0.0000000000,   -0.0000000000,    0.0000000000,   -0.0000000000,   -2.8463396936,    0.5389173412 ]
  - [   -0.2441450010,    0.0055227274,   -0.0000000000,    0.0000000000,    0.0000000000,    0.0000000000,    0.3159933776,   -0.0000000000,    0.0000000000,   -0.0000000000,   -0.0000000000,    0.0000000000 ]
  - [    0.0000000000,   -0.0000000000,   -0.2441450010,    0.0055227274,    0.0000000000,    0.0000000000,    0.0000000000,    0.0000000000,    0.3159933776,   -0.0000000000,    0.0000000000,    0.0000000000 ]
  - [    0.0000000000,    0.0000000000,    0.0000000000,    0.0000000000,   -2.8463396936,   -0.5389173412,   -0.0000000000,   -0.0000000000,    0.0000000000,   -0.0000000000,    4.4005008929,   -0.0000000000 ]
  band:
  - # 1
    frequency:    5.7579753176
  - # 2
    frequency:    5.7579753176
  - # 3
    frequency:   16.0850359806
  - # 4
    frequency:   16.0850359806
  - # 5
    frequency:   26.3520954733
  - # 6
    frequency:   58.0543184282

- q-position: [    0.5000000,    0.5000000,    0.5000000 ]
  dynamical_matrix:
  - [    0.3559185297,   -0.0000000000,    0.0000000000,   -0.0000000000,   -0.0000000000,    0.0000000000,    0.0006398927,   -0.0153887897,    0.0000000000,    0.0000000000,    0.0000000000,   -0.0000000000 ]
  - [    0.0000000000,    0.0000000000,    0.3559185297,   -0.0000000000,    0.0000000000,    0.0000000000,   -0.0000000000,   -0.0000000000,    0.0006398927,   -0.0153887897,    0.0000000000,   -0.0000000000 ]
  - [   -0.0000000000,   -0.0000000000,    0.0000000000,   -0.0000000000,    5.0484350265,   -0.0000000000,    0.0000000000,   -0.0000000000,    0.0000000000,   -0.0000000000,   -0.0363187354,    0.8734362768 ]
  - [    0.0006398927,    0.0153887897,   -0.0000000000,    0.0000000000,    0.0000000000,    0.0000000000,    0.3559185297,   -0.0000000000,    0.0000000000,   -0.0000000000,   -0.0000000000,   -0.0000000000 ]
  - [    0.0000000000,   -0.0000000000,    0.0006398927,    0.0153887897,    0.0000000000,    0.0000000000,    0.0000000000,    0.0000000000,    0.3559185297,   -0.0000000000,    0.0000000000,   -0.0000000000 ]
  - [    0.0000000000,    0.0000000000,    0.0000000000,    0.0000000000,   -0.0363187354,   -0.8734362768,   -0.0000000000,    0.0000000000,    0.0000000000,    0.0000000000,    5.0484350265,   -0.0000000000 ]
  band:
  - # 1
    frequency:   12.5406256566
  - # 2
    frequency:   12.5406256566
  - # 3
    frequency:   13.0955786400
  - # 4
    frequency:   13.0955786400
  - # 5
    frequency:   43.9075369790
  - # 6
    frequency:   52.3006778712

