# Tetrahedron method
       -6.3703032727        0.0000000000
       -6.0188832497        0.0000000000
       -5.6674632267        0.0000000000
       -5.3160432037        0.0000000000
       -4.9646231808        0.0000000000
       -4.6132031578        0.0000000000
       -4.2617831348        0.0000000000
       -3.9103631118        0.0000000000
       -3.5589430888        0.0000000000
       -3.2075230658        0.0000000000
       -2.8561030428        0.0000000000
       -2.5046830199        0.0000000000
       -2.1532629969        0.0000000000
       -1.8018429739        0.0000000000
       -1.4504229509        0.0000000000
       -1.0990029279        0.0000000000
       -0.7475829049        0.0000000000
       -0.3961628820        0.8644644030
       -0.0447428590        2.4803856421
        0.3066771640        0.9220871877
        0.6580971870        1.9317694800
        1.0095172100        1.2962741578
        1.3609372330        3.0680091490
        1.7123572559        4.6356093227
        2.0637772789        3.7296046920
        2.4151973019        5.6102109944
        2.7666173249        4.6285107117
        3.1180373479        7.2577602001
        3.4694573709        4.6016242382
        3.8208773938        1.6257991266
        4.1722974168        4.4582877530
        4.5237174398        5.0025354690
        4.8751374628        3.7094185893
        5.2265574858        3.8539869929
        5.5779775088        4.7124021576
        5.9293975317        3.3147382176
        6.2808175547        3.9934797731
        6.6322375777        3.8154002219
        6.9836576007        3.7394012359
        7.3350776237        3.7752128079
        7.6864976467        3.5539330875
        8.0379176696        3.5544423715
        8.3893376926        1.7317440802
        8.7407577156        3.6918641948
        9.0921777386        3.6421076478
        9.4435977616        3.9191484448
        9.7950177846        3.7778369396
       10.1464378075        3.6926546578
       10.4978578305        3.9833231901
       10.8492778535        3.7206207191
       11.2006978765        1.7790927113
       11.5521178995        4.2981836610
       11.9035379225        4.1555640793
       12.2549579454        4.9430139321
       12.6063779684        0.4443468223
       12.9577979914        0.4466672517
       13.3092180144        5.8229043275
       13.6606380374        6.3410143386
       14.0120580604        5.6715121992
       14.3634780833        6.5134223764
       14.7148981063        7.2352141526
       15.0663181293        7.6536988580
       15.4177381523       11.8228545577
       15.7691581753       12.4638172673
       16.1205781983       38.1345274794
       16.4719982212        0.4553493124
       16.8234182442        0.4569998280
       17.1748382672        0.4578877880
       17.5262582902        0.4577810229
       17.8776783132        0.4580386745
       18.2290983362        0.4602277614
       18.5805183592        0.4620097013
       18.9319383821        0.4630862571
       19.2833584051        0.4629771499
       19.6347784281        0.4633103739
       19.9861984511        0.4656709720
       20.3376184741        0.4676353301
       20.6890384971        0.4689751598
       21.0404585200        0.4688937705
       21.3918785430        0.4695557473
       21.7432985660        0.4712083577
       22.0947185890        0.4740734760
       22.4461386120        0.4751150965
       22.7975586350        0.4756920673
       23.1489786579        0.4765399119
       23.5003986809        0.4791331288
       23.8518187039        0.4809045636
       24.2032387269        0.4823881328
       24.5546587499        0.4830411714
       24.9060787729        0.4850113619
       25.2574987958        0.4869571675
       25.6089188188        0.4893272280
       25.9603388418        0.4905043775
       26.3117588648        0.4915253453
       26.6631788878        0.4943749279
       27.0145989108        0.4965247290
       27.3660189337        0.4985603237
       27.7174389567        0.4997745009
       28.0688589797        0.5013401587
       28.4202790027        0.5050716810
       28.7716990257        0.5082223953
       29.1231190487        0.5092604829
       29.4745390716        0.5107417580
       29.8259590946        0.5141575593
       30.1773791176        0.5170774936
       30.5287991406        0.5203666231
       30.8802191636        0.5222670009
       31.2316391866        0.5252113048
       31.5830592095        0.5281175419
       31.9344792325        0.5321180484
       32.2858992555        0.5344411179
       32.6373192785        0.5371187678
       32.9887393015        0.5420501867
       33.3401593245        0.5473561767
       33.6915793474        0.5498014897
       34.0429993704        0.5524455632
       34.3944193934        0.5563485607
       34.7458394164        0.5619437088
       35.0972594394        0.5671954574
       35.4486794624        0.5716812249
       35.8000994853        0.5769613164
       36.1515195083        0.5831260832
       36.5029395313        0.5887565487
       36.8543595543        0.5961445874
       37.2057795773        0.6034013282
       37.5571996003        1.5509731144
       37.9086196232        1.1144762319
       38.2600396462        1.0359034346
       38.6114596692        1.0367908663
       38.9628796922        0.9674841693
       39.3142997152        0.9928321960
       39.6657197382        0.9495275979
       40.0171397611        0.9509726564
       40.3685597841        0.9599175358
       40.7199798071        0.9786393479
       41.0713998301        1.0039596355
       41.4228198531        1.0804684467
       41.7742398761        1.0709073467
       42.1256598991        1.1298519828
       42.4770799220        1.2034709259
       42.8284999450        1.3172260228
       43.1799199680        1.9626286932
       43.5313399910        1.8769674407
       43.8827600140        6.6172990583
       44.2341800370        0.2596481547
       44.5856000599        0.2675265807
       44.9370200829        0.2716111063
       45.2884401059        0.2790380958
       45.6398601289        0.2822861145
       45.9912801519        0.2885178842
       46.3427001749        0.2919630606
       46.6941201978        0.3004392290
       47.0455402208        0.3055573305
       47.3969602438        0.3169253359
       47.7483802668        0.3282390716
       48.0998002898        0.3381992758
       48.4512203128        0.3427612645
       48.8026403357        0.3521293051
       49.1540603587        0.3633206807
       49.5054803817        0.3768367297
       49.8569004047        0.3913288390
       50.2083204277        0.4048202894
       50.5597404507        0.4167128423
       50.9111604736        0.4350565434
       51.2625804966        0.4502809051
       51.6140005196        0.4676990049
       51.9654205426        0.4931774916
       52.3168405656        9.4025033610
       52.6682605886        2.6300363285
       53.0196806115        2.1880417892
       53.3711006345        2.0484546584
       53.7225206575        1.9949642149
       54.0739406805        2.0013173866
       54.4253607035        2.0230759955
       54.7767807265        1.9343989072
       55.1282007494        2.1605719577
       55.4796207724        2.2920452145
       55.8310407954        2.4428663092
       56.1824608184        2.6238788663
       56.5338808414        2.9029330050
       56.8853008644        3.3042499818
       57.2367208873        3.9237498198
       57.5881409103        5.2114937228
       57.9395609333       10.3971858592
       58.2909809563        0.0000000000
       58.6424009793        0.0000000000
       58.9938210023        0.0000000000
       59.3452410252        0.0000000000
       59.6966610482        0.0000000000
       60.0480810712        0.0000000000
       60.3995010942        0.0000000000
       60.7509211172        0.0000000000
       61.1023411402        0.0000000000
       61.4537611631        0.0000000000
       61.8051811861        0.0000000000
       62.1566012091        0.0000000000
       62.5080212321        0.0000000000
       62.8594412551        0.0000000000
       63.2108612781        0.0000000000
       63.5622813010        0.0000000000
       63.9137013240        0.0000000000
