Siesta Version  : v4.1-b4
Architecture    : unknown
Compiler version: ifort (IFORT) 2021.6.0 20220226
Compiler flags  : mpiifort -O2 -fPIC -xSSE4.2 -fp-model source
PP flags        : -DFC_HAVE_ABORT -DMPI -DCDF -DNCDF -DNCDF_4
Libraries       : libncdf.a libfdict.a -Wl,--start-group /opt/intel/oneapi/mkl/2022.1.0/lib/inttel64/libmkl_scalapack_lp64.a /opt/intel/oneapi/mkl/2022.1.0/lib/intel64/libmkl_intel_lp64.a /opt/intel/oneapi/mkl/2022.1.0/lib/intel64/libmkl_core.a /opt/intel/oneapi/mkl/2022.1.0/lib/intel64/libmkl_sequential.a  -Wl,--end-group -lpthread -Wl,--start-group /opt/intel/oneapi/mkl/2022.1.0/lib/intel64/libmkl_blacs_intelmpi_lp64.a /opt/intel/oneapi/mkl/2022.1.0/lib/intel64/libmkl_intel_lp64.a /opt/intel/oneapi/mkl/2022.1.0/lib/intel64/libmkl_sequential.a /opt/intel/oneapi/mkl/2022.1.0/lib/intel64/libmkl_core.a -Wl,--end-group -Wl,--start-group /opt/intel/oneapi/mkl/2022.1.0/lib/intel64/libmkl_lapack95_lp64.a /opt/intel/oneapi/mkl/2022.1.0/lib/intel64/libmkl_blacs_intelmpi_lp64.a /opt/intel/oneapi/mkl/2022.1.0/lib/intel64/libmkl_intel_lp64.a /opt/intel/oneapi/mkl/2022.1.0/lib/intel64/libmkl_sequential.a /opt/intel/oneapi/mkl/2022.1.0/lib/intel64/libmkl_core.a -Wl,--end-group -Wl,--start-group /opt/intel/oneapi/mkl/2022.1.0/lib/intel64/libmkl_blas95_lp64.a /opt/intel/oneapi/mkl/2022.1.0/lib/intel64/libmkl_intel_lp64.a /opt/intel/oneapi/mkl/2022.1.0/lib/intel64/libmkl_sequential.a /opt/intel/oneapi/mkl/2022.1.0/lib/intel64/libmkl_core.a -Wl,--end-group  -lnetcdff -lnetcdf -lhdf5_hl -lhdf5 -lz
PARALLEL version
NetCDF support
NetCDF-4 support

* Running on 20 nodes in parallel
>> Start of run:  11-JAN-2023   3:12:03

                           ***********************       
                           *  WELCOME TO SIESTA  *       
                           ***********************       

reinit: Reading from standard input
reinit: Dumped input in INPUT_TMP.70199
************************** Dump of input data file ****************************
#(1) General system descriptors
SystemName       siesta           # Descriptive name of the system
SystemLabel      siesta           # Short name for naming files
%include STRUCT.fdf
%include KPT.fdf
%include BASIS.fdf
%include TS.fdf
#(4) DFT, Grid, SCF
XC.functional         GGA            # LDA or GGA (default = LDA)
XC.authors            PBE            # CA (Ceperley-Aldr) = PZ
MeshCutoff            100.000000    Ry      # Default: 50.0 Ry ~ 0.444 Bohr
                                    #         100.0 Ry ~ 0.314 Bohr
MaxSCFIterations      500           # Default: 50
DM.MixingWeight       0.01          # Default: 0.25
DM.NumberPulay        10            # Default: 0
DM.PulayOnFile        F             # SystemLabel.P1, SystemLabel.P2
DM.Tolerance          1.d-4         # Default: 1.d-4
DM.UseSaveDM          .true.        # because of the bug
SCFMustConverge       .true.
NeglNonOverlapInt     F             # Default: F
#(5) Eigenvalue problem: order-N or diagonalization
SolutionMethod        transiesta
ElectronicTemperature 300.0 K       # Default: 300.0 K
************************** End of input data file *****************************

reinit: -----------------------------------------------------------------------
reinit: System Name: siesta
reinit: -----------------------------------------------------------------------
reinit: System Label: siesta
reinit: -----------------------------------------------------------------------

initatom: Reading input for the pseudopotentials and atomic orbitals ----------
Species number:   1 Atomic number:   14 Label: Si
Species number:   2 Atomic number:    8 Label: O
 
Ground state valence configuration:   3s02  3p02
Reading pseudopotential information in formatted form from Si.psf

Valence configuration for pseudopotential generation:
3s( 2.00) rc: 1.75
3p( 2.00) rc: 1.94
3d( 0.00) rc: 2.09
4f( 0.00) rc: 2.09
Ground state valence configuration:   2s02  2p04
Reading pseudopotential information in formatted form from O.psf

Valence configuration for pseudopotential generation:
2s( 2.00) rc: 1.47
2p( 4.00) rc: 1.47
3d( 0.00) rc: 1.47
4f( 0.00) rc: 1.47
For Si, standard SIESTA heuristics set lmxkb to 2
 (one more than the basis l, including polarization orbitals).
Use PS.lmax or PS.KBprojectors blocks to override.
For O, standard SIESTA heuristics set lmxkb to 2
 (one more than the basis l, including polarization orbitals).
Use PS.lmax or PS.KBprojectors blocks to override.

<basis_specs>
===============================================================================
Si                   Z=  14    Mass=  28.090        Charge= 0.17977+309
Lmxo=1 Lmxkb= 2    BasisType=split      Semic=F
L=0  Nsemic=0  Cnfigmx=3
          n=1  nzeta=1  polorb=0
            splnorm:   0.15000    
               vcte:    0.0000    
               rinn:    0.0000    
               qcoe:    0.0000    
               qyuk:    0.0000    
               qwid:   0.10000E-01
                rcs:    0.0000    
            lambdas:    1.0000    
L=1  Nsemic=0  Cnfigmx=3
          n=1  nzeta=1  polorb=0
            splnorm:   0.15000    
               vcte:    0.0000    
               rinn:    0.0000    
               qcoe:    0.0000    
               qyuk:    0.0000    
               qwid:   0.10000E-01
                rcs:    0.0000    
            lambdas:    1.0000    
-------------------------------------------------------------------------------
L=0  Nkbl=1  erefs: 0.17977+309
L=1  Nkbl=1  erefs: 0.17977+309
L=2  Nkbl=1  erefs: 0.17977+309
===============================================================================
</basis_specs>

atom: Called for Si                    (Z =  14)

read_vps: Pseudopotential generation method:
read_vps: ATM3      Troullier-Martins                       
Total valence charge:    4.00000

read_vps: Pseudopotential includes a core correction:
read_vps: Pseudo-core for xc-correction

xc_check: Exchange-correlation functional:
xc_check: GGA Perdew, Burke & Ernzerhof 1996
V l=0 = -2*Zval/r beyond r=  2.0104
V l=1 = -2*Zval/r beyond r=  2.0873
V l=2 = -2*Zval/r beyond r=  2.1670
All V_l potentials equal beyond r=  2.0873
This should be close to max(r_c) in ps generation
All pots = -2*Zval/r beyond r=  2.1670

VLOCAL1: 99.0% of the norm of Vloc inside      9.963 Ry
VLOCAL1: 99.9% of the norm of Vloc inside     22.707 Ry
atom: Maximum radius for 4*pi*r*r*local-pseudopot. charge    2.48649
atom: Maximum radius for r*vlocal+2*Zval:    2.16704
GHOST: No ghost state for L =  0
GHOST: No ghost state for L =  1
GHOST: No ghost state for L =  2

KBgen: Kleinman-Bylander projectors: 
   l= 0   rc=  2.306811   el= -0.791441   Ekb=  5.258410   kbcos=  0.290410
   l= 1   rc=  2.425092   el= -0.300632   Ekb=  1.907369   kbcos=  0.287452
   l= 2   rc=  2.549439   el=  0.001958   Ekb= -1.814564   kbcos= -0.057011

KBgen: Total number of  Kleinman-Bylander projectors:    9
atom: -------------------------------------------------------------------------

atom: SANKEY-TYPE ORBITALS:

SPLIT: Orbitals with angular momentum L= 0

SPLIT: Basis orbitals for state 3s

SPLIT: PAO cut-off radius determined from an
SPLIT: energy shift=  0.020000 Ry

   izeta = 1
                 lambda =    1.000000
                     rc =    5.007352
                 energy =   -0.772735
                kinetic =    0.581259
    potential(screened) =   -1.353994
       potential(ionic) =   -3.769451

SPLIT: Orbitals with angular momentum L= 1

SPLIT: Basis orbitals for state 3p

SPLIT: PAO cut-off radius determined from an
SPLIT: energy shift=  0.020000 Ry

   izeta = 1
                 lambda =    1.000000
                     rc =    6.270866
                 energy =   -0.282590
                kinetic =    0.876421
    potential(screened) =   -1.159012
       potential(ionic) =   -3.390735
atom: Total number of Sankey-type orbitals:  4

atm_pop: Valence configuration (for local Pseudopot. screening):
 3s( 2.00)                                                            
 3p( 2.00)                                                            
Vna: chval, zval:    4.00000   4.00000

Vna:  Cut-off radius for the neutral-atom potential:   6.270866
comcore: Pseudo-core radius Rcore=  2.999314

atom: _________________________________________________________________________

<basis_specs>
===============================================================================
O                    Z=   8    Mass=  16.000        Charge= 0.17977+309
Lmxo=1 Lmxkb= 2    BasisType=split      Semic=F
L=0  Nsemic=0  Cnfigmx=2
          n=1  nzeta=1  polorb=0
            splnorm:   0.15000    
               vcte:    0.0000    
               rinn:    0.0000    
               qcoe:    0.0000    
               qyuk:    0.0000    
               qwid:   0.10000E-01
                rcs:    0.0000    
            lambdas:    1.0000    
L=1  Nsemic=0  Cnfigmx=2
          n=1  nzeta=1  polorb=0
            splnorm:   0.15000    
               vcte:    0.0000    
               rinn:    0.0000    
               qcoe:    0.0000    
               qyuk:    0.0000    
               qwid:   0.10000E-01
                rcs:    0.0000    
            lambdas:    1.0000    
-------------------------------------------------------------------------------
L=0  Nkbl=1  erefs: 0.17977+309
L=1  Nkbl=1  erefs: 0.17977+309
L=2  Nkbl=1  erefs: 0.17977+309
===============================================================================
</basis_specs>

atom: Called for O                     (Z =   8)

read_vps: Pseudopotential generation method:
read_vps: ATM3      Troullier-Martins                       
Total valence charge:    6.00000

read_vps: Pseudopotential includes a core correction:
read_vps: Pseudo-core for xc-correction

xc_check: Exchange-correlation functional:
xc_check: GGA Perdew, Burke & Ernzerhof 1996
V l=0 = -2*Zval/r beyond r=  1.4482
V l=1 = -2*Zval/r beyond r=  1.4482
V l=2 = -2*Zval/r beyond r=  1.4482
All V_l potentials equal beyond r=  1.4482
This should be close to max(r_c) in ps generation
All pots = -2*Zval/r beyond r=  1.4482

VLOCAL1: 99.0% of the norm of Vloc inside     20.696 Ry
VLOCAL1: 99.9% of the norm of Vloc inside     47.167 Ry
atom: Maximum radius for 4*pi*r*r*local-pseudopot. charge    1.74697
atom: Maximum radius for r*vlocal+2*Zval:    1.52250
GHOST: No ghost state for L =  0
GHOST: No ghost state for L =  1
GHOST: No ghost state for L =  2

KBgen: Kleinman-Bylander projectors: 
   l= 0   rc=  1.620715   el= -1.757696   Ekb=  4.880948   kbcos=  0.293490
   l= 1   rc=  1.600578   el= -0.664256   Ekb= -6.909822   kbcos= -0.499892
   l= 2   rc=  1.703827   el=  0.002031   Ekb= -1.539219   kbcos= -0.006778

KBgen: Total number of  Kleinman-Bylander projectors:    9
atom: -------------------------------------------------------------------------

atom: SANKEY-TYPE ORBITALS:

SPLIT: Orbitals with angular momentum L= 0

SPLIT: Basis orbitals for state 2s

SPLIT: PAO cut-off radius determined from an
SPLIT: energy shift=  0.020000 Ry

   izeta = 1
                 lambda =    1.000000
                     rc =    3.305093
                 energy =   -1.740009
                kinetic =    1.602198
    potential(screened) =   -3.342207
       potential(ionic) =  -11.287121

SPLIT: Orbitals with angular momentum L= 1

SPLIT: Basis orbitals for state 2p

SPLIT: PAO cut-off radius determined from an
SPLIT: energy shift=  0.020000 Ry

   izeta = 1
                 lambda =    1.000000
                     rc =    3.937239
                 energy =   -0.646301
                kinetic =    4.684247
    potential(screened) =   -5.330548
       potential(ionic) =  -13.029785
atom: Total number of Sankey-type orbitals:  4

atm_pop: Valence configuration (for local Pseudopot. screening):
 2s( 2.00)                                                            
 2p( 4.00)                                                            
Vna: chval, zval:    6.00000   6.00000

Vna:  Cut-off radius for the neutral-atom potential:   3.937239
comcore: Pseudo-core radius Rcore=  1.377587

atom: _________________________________________________________________________

prinput: Basis input ----------------------------------------------------------

PAO.BasisType split     

%block ChemicalSpeciesLabel
    1   14 Si                      # Species index, atomic number, species label
    2    8 O                       # Species index, atomic number, species label
%endblock ChemicalSpeciesLabel

%block PAO.Basis                 # Define Basis set
Si                    2                    # Species label, number of l-shells
 n=3   0   1                         # n, l, Nzeta 
   5.007   
   1.000   
 n=3   1   1                         # n, l, Nzeta 
   6.271   
   1.000   
O                     2                    # Species label, number of l-shells
 n=2   0   1                         # n, l, Nzeta 
   3.305   
   1.000   
 n=2   1   1                         # n, l, Nzeta 
   3.937   
   1.000   
%endblock PAO.Basis

prinput: ----------------------------------------------------------------------

Dumping basis to NetCDF file Si.ion.nc
Dumping basis to NetCDF file O.ion.nc
coor:   Atomic-coordinates input format  =     Cartesian coordinates
coor:                                          (in Angstroms)

siesta: Atomic coordinates (Bohr) and species
siesta:      1.81668   1.94407  18.89624  1        1
siesta:      9.22478   9.35218  18.89624  1        2
siesta:      9.22478   1.94407  18.89624  1        3
siesta:      1.81668   9.35218  18.89624  1        4
siesta:      5.52073   1.94407  21.51540  1        5
siesta:     12.92884   9.35218  21.51540  1        6
siesta:     12.92884   1.94407  21.51540  1        7
siesta:      5.52073   9.35218  21.51540  1        8
siesta:     12.92884   5.64812  24.13456  1        9
siesta:      5.52073  13.05623  24.13456  1       10
siesta:      5.52073   5.64813  24.13456  1       11
siesta:     12.92884  13.05623  24.13456  1       12
siesta:      1.81668   5.64812  26.75372  1       13
siesta:      9.22478  13.05623  26.75372  1       14
siesta:      9.22478   5.64813  26.75372  1       15
siesta:      1.81668  13.05623  26.75372  1       16
siesta:      1.81668   1.94407  29.37288  1       17
siesta:      9.22478   9.35218  29.37288  1       18
siesta:      9.22478   1.94407  29.37288  1       19
siesta:      1.81668   9.35218  29.37288  1       20
siesta:      5.52073   1.94407  31.99204  1       21
siesta:     12.92884   9.35218  31.99204  1       22
siesta:     12.92884   1.94407  31.99204  1       23
siesta:      5.52073   9.35218  31.99204  1       24
siesta:     12.92884   5.64812  34.61121  1       25
siesta:      5.52073  13.05623  34.61121  1       26
siesta:      5.52073   5.64813  34.61121  1       27
siesta:     12.92884  13.05623  34.61121  1       28
siesta:      1.81668   5.64812  37.23037  1       29
siesta:      9.22478  13.05623  37.23037  1       30
siesta:      9.22478   5.64813  37.23037  1       31
siesta:      1.81668  13.05623  37.23037  1       32
siesta:      1.81668   1.94407  39.84953  1       33
siesta:      9.22478   9.35218  39.84953  1       34
siesta:      9.22478   1.94407  39.84953  1       35
siesta:      1.81668   9.35218  39.84953  1       36
siesta:      5.52073   1.94407  42.46869  1       37
siesta:     12.92884   9.35218  42.46869  1       38
siesta:     12.92884   1.94407  42.46869  1       39
siesta:      5.52073   9.35218  42.46869  1       40
siesta:     12.92884   5.64812  45.08785  1       41
siesta:      5.52073  13.05623  45.08785  1       42
siesta:      5.52073   5.64813  45.08785  1       43
siesta:     12.92884  13.05623  45.08785  1       44
siesta:      9.22713   5.64671  47.70644  1       45
siesta:      1.81902  13.05482  47.70644  1       46
siesta:      1.81668   5.64812  47.70701  1       47
siesta:      9.22478  13.05623  47.70701  1       48
siesta:      1.82640   1.94735  50.34424  1       49
siesta:      9.23451   9.35546  50.34424  1       50
siesta:      9.23942   1.94898  50.34604  1       51
siesta:      1.83132   9.35708  50.34604  1       52
siesta:      5.53558   1.96604  52.97518  1       53
siesta:     12.94369   9.37415  52.97518  1       54
siesta:     12.94506   1.96166  52.99061  1       55
siesta:      5.53696   9.36977  52.99061  1       56
siesta:     12.95856   5.68225  55.61677  1       57
siesta:      5.55045  13.09036  55.61677  1       58
siesta:      5.54360   5.66336  55.62586  1       59
siesta:     12.95171  13.07147  55.62586  1       60
siesta:      9.25891   5.68852  58.25445  1       61
siesta:      1.85080  13.09663  58.25445  1       62
siesta:      1.84181   5.69181  58.26910  1       63
siesta:      9.24991  13.09991  58.26910  1       64
siesta:      1.82612   1.98441  60.90089  1       65
siesta:      9.23423   9.39251  60.90089  1       66
siesta:      9.29542   2.00050  60.90608  1       67
siesta:      1.88731   9.40861  60.90608  1       68
siesta:      5.56040   2.02561  63.47574  1       69
siesta:     12.96851   9.43371  63.47574  1       70
siesta:     12.97636   2.00230  63.60415  1       71
siesta:      5.56826   9.41040  63.60415  1       72
siesta:     13.00229   5.79681  66.15937  1       73
siesta:      5.59419  13.20492  66.15937  1       74
siesta:      5.55398   5.65100  66.20314  1       75
siesta:     12.96209  13.05910  66.20314  1       76
siesta:      9.30685   5.73630  68.79185  1       77
siesta:      1.89874  13.14440  68.79185  1       78
siesta:      1.84906   5.75311  68.88169  1       79
siesta:      9.25716  13.16121  68.88169  1       80
siesta:      1.27692   2.00569  71.37190  1       81
siesta:      8.68503   9.41379  71.37190  1       82
siesta:      9.93229   2.08583  71.39461  1       83
siesta:      2.52418   9.49393  71.39461  1       84
siesta:     13.01362   1.94919  72.36712  2       85
siesta:      5.60551   9.35730  72.36712  2       86
siesta:      3.05257   1.96603  74.02570  2       87
siesta:     10.46067   9.37414  74.02570  2       88
siesta:      8.22264   2.39750  74.09214  2       89
siesta:      0.81453   9.80561  74.09214  2       90
siesta:      5.63246   1.92789  75.85819  1       91
siesta:     13.04057   9.33599  75.85819  1       92
siesta:     13.31370   6.49414  77.25135  2       93
siesta:      5.90559  13.90224  77.25135  2       94
siesta:      5.31648   4.23484  78.01020  2       95
siesta:     12.72459  11.64295  78.01020  2       96
siesta:     13.29572   1.78177  79.31815  2       97
siesta:      5.88762   9.18988  79.31815  2       98
siesta:     12.63740   4.85637  79.89144  1       99
siesta:      5.22929  12.26447  79.89144  1      100
siesta:      6.48635   6.18165  80.23520  1      101
siesta:     13.89446  13.58976  80.23520  1      102
siesta:      9.58375   5.49143  80.63777  2      103
siesta:      2.17564  12.89954  80.63777  2      104
siesta:     -0.29740   5.82198  82.27288  2      105
siesta:      7.11071  13.23009  82.27288  2      106
siesta:      4.93113   5.69848  82.97752  2      107
siesta:     12.33924  13.10659  82.97752  2      108
siesta:      2.06897   5.42048  84.36072  1      109
siesta:      9.47708  12.82859  84.36072  1      110
siesta:      1.94478   2.50413  85.65573  2      111
siesta:      9.35289   9.91224  85.65573  2      112
siesta:      9.09218   0.27824  86.55834  2      113
siesta:      1.68407   7.68635  86.55834  2      114
siesta:      9.64402   5.24906  87.94760  2      115
siesta:      2.23591  12.65717  87.94760  2      116
siesta:      1.49669   0.92459  88.39294  1      117
siesta:      8.90479   8.33270  88.39294  1      118
siesta:     10.21102   2.21331  88.82389  1      119
siesta:      2.80291   9.62141  88.82389  1      120
siesta:     13.28687   1.48229  89.30064  2      121
siesta:      5.87876   8.89040  89.30064  2      122
siesta:      3.43419   2.08336  90.63441  2      123
siesta:     10.84230   9.49147  90.63441  2      124
siesta:      8.60431   1.70258  91.52180  2      125
siesta:      1.19620   9.11068  91.52180  2      126
siesta:      5.70720   1.81267  92.83555  1      127
siesta:     13.11530   9.22078  92.83555  1      128
siesta:     12.70175   6.56631  94.52689  2      129
siesta:      5.29364  13.97441  94.52689  2      130
siesta:      5.50012   4.33756  94.72975  2      131
siesta:     12.90823  11.74566  94.72975  2      132
siesta:     12.91908   1.82246  96.38202  2      133
siesta:      5.51098   9.23057  96.38202  2      134
siesta:     12.85404   4.92314  97.28438  1      135
siesta:      5.44593  12.33125  97.28438  1      136
siesta:      5.48402   6.14846  97.36192  1      137
siesta:     12.89213  13.55657  97.36192  1      138
siesta:      1.74150   5.59075  99.84856  1      139
siesta:      9.14960  12.99886  99.84856  1      140
siesta:      9.19395   5.56800  99.89011  1      141
siesta:      1.78584  12.97611  99.89011  1      142
siesta:      1.83826   1.88811 102.51725  1      143
siesta:      9.24637   9.29622 102.51725  1      144
siesta:      9.10954   1.87116 102.53824  1      145
siesta:      1.70144   9.27927 102.53824  1      146
siesta:     12.89039   1.88488 105.11238  1      147
siesta:      5.48228   9.29299 105.11238  1      148
siesta:      5.47204   1.90113 105.23086  1      149
siesta:     12.88014   9.30924 105.23086  1      150
siesta:     12.89309   5.57228 107.80589  1      151
siesta:      5.48498  12.98039 107.80589  1      152
siesta:      5.49170   5.63045 107.81956  1      153
siesta:     12.89980  13.03856 107.81956  1      154
siesta:      1.78469   5.61495 110.45273  1      155
siesta:      9.19280  13.02306 110.45273  1      156
siesta:      9.19924   5.61011 110.45694  1      157
siesta:      1.79113  13.01821 110.45694  1      158
siesta:      1.80780   1.91365 113.09420  1      159
siesta:      9.21591   9.32176 113.09420  1      160
siesta:      9.19870   1.91043 113.10001  1      161
siesta:      1.79059   9.31854 113.10001  1      162
siesta:     12.91625   1.92365 115.72971  1      163
siesta:      5.50815   9.33175 115.72971  1      164
siesta:      5.50524   1.92679 115.74342  1      165
siesta:     12.91335   9.33490 115.74342  1      166
siesta:     12.92630   5.63128 118.37359  1      167
siesta:      5.51819  13.03939 118.37359  1      168
siesta:      5.51862   5.63576 118.37639  1      169
siesta:     12.92673  13.04387 118.37639  1      170
siesta:      1.81414   5.63128 120.99274  1      171
siesta:      9.22224  13.03939 120.99274  1      172
siesta:      9.22224   5.63128 120.99274  1      173
siesta:      1.81414  13.03939 120.99274  1      174
siesta:      1.81414   1.92723 123.61191  1      175
siesta:      9.22224   9.33533 123.61191  1      176
siesta:      9.22224   1.92723 123.61191  1      177
siesta:      1.81414   9.33533 123.61191  1      178
siesta:      5.51819   1.92723 126.23107  1      179
siesta:     12.92630   9.33533 126.23107  1      180
siesta:     12.92630   1.92723 126.23107  1      181
siesta:      5.51819   9.33533 126.23107  1      182
siesta:     12.92630   5.63128 128.85023  1      183
siesta:      5.51819  13.03939 128.85023  1      184
siesta:      5.51819   5.63128 128.85023  1      185
siesta:     12.92630  13.03939 128.85023  1      186
siesta:      1.81414   5.63128 131.46939  1      187
siesta:      9.22224  13.03939 131.46939  1      188
siesta:      9.22224   5.63128 131.46939  1      189
siesta:      1.81414  13.03939 131.46939  1      190
siesta:      1.81414   1.92723 134.08855  1      191
siesta:      9.22224   9.33533 134.08855  1      192
siesta:      9.22224   1.92723 134.08855  1      193
siesta:      1.81414   9.33533 134.08855  1      194
siesta:      5.51819   1.92723 136.70772  1      195
siesta:     12.92630   9.33533 136.70772  1      196
siesta:     12.92630   1.92723 136.70772  1      197
siesta:      5.51819   9.33533 136.70772  1      198
siesta:     12.92630   5.63128 139.32688  1      199
siesta:      5.51819  13.03939 139.32688  1      200
siesta:      5.51819   5.63128 139.32688  1      201
siesta:     12.92630  13.03939 139.32688  1      202
siesta:      1.81414   5.63128 141.94604  1      203
siesta:      9.22224  13.03939 141.94604  1      204
siesta:      9.22224   5.63128 141.94604  1      205
siesta:      1.81414  13.03939 141.94604  1      206
siesta:      1.81414   1.92723 144.56520  1      207
siesta:      9.22224   9.33533 144.56520  1      208
siesta:      9.22224   1.92723 144.56520  1      209
siesta:      1.81414   9.33533 144.56520  1      210
siesta:      5.51819   1.92723 147.18436  1      211
siesta:     12.92630   9.33533 147.18436  1      212
siesta:     12.92630   1.92723 147.18436  1      213
siesta:      5.51819   9.33533 147.18436  1      214
siesta:     12.92630   5.63128 149.80352  1      215
siesta:      5.51819  13.03939 149.80352  1      216
siesta:      5.51819   5.63128 149.80352  1      217
siesta:     12.92630  13.03939 149.80352  1      218

siesta: System type = slab      

initatomlists: Number of atoms, orbitals, and projectors:    218   872  1962

siesta: ******************** Simulation parameters ****************************
siesta:
siesta: The following are some of the parameters of the simulation.
siesta: A complete list of the parameters used, including default values,
siesta: can be found in file out.fdf
siesta:
redata: Spin configuration                          = none
redata: Number of spin components                   = 1
redata: Time-Reversal Symmetry                      = T
redata: Spin-spiral                                 = F
redata: Long output                                 =   F
redata: Number of Atomic Species                    =        2
redata: Charge density info will appear in .RHO file
redata: Write Mulliken Pop.                         = NO
redata: Matel table size (NRTAB)                    =     1024
redata: Mesh Cutoff                                 =   100.0000 Ry
redata: Net charge of the system                    =     0.0000 |e|
redata: Min. number of SCF Iter                     =        0
redata: Max. number of SCF Iter                     =      500
redata: SCF convergence failure will abort job
redata: SCF mix quantity                            = Hamiltonian
redata: Mix DM or H after convergence               =   F
redata: Recompute H after scf cycle                 =   F
redata: Mix DM in first SCF step                    =   T
redata: Write Pulay info on disk                    =   F
redata: New DM Mixing Weight                        =     0.0100
redata: New DM Occupancy tolerance                  = 0.000000000001
redata: No kicks to SCF
redata: DM Mixing Weight for Kicks                  =     0.5000
redata: Require Harris convergence for SCF          =   F
redata: Harris energy tolerance for SCF             =     0.000100 eV
redata: Require DM convergence for SCF              =   T
redata: DM tolerance for SCF                        =     0.000100
redata: Require EDM convergence for SCF             =   F
redata: EDM tolerance for SCF                       =     0.001000 eV
redata: Require H convergence for SCF               =   T
redata: Hamiltonian tolerance for SCF               =     0.001000 eV
redata: Require (free) Energy convergence for SCF   =   F
redata: (free) Energy tolerance for SCF             =     0.000100 eV
redata: Using Saved Data (generic)                  =   F
redata: Use continuation files for DM               =   T
redata: Neglect nonoverlap interactions             =   F
redata: Method of Calculation                       = Transiesta
redata: Fix the spin of the system                  =   F
redata: Dynamics option                             = Single-point calculation
mix.SCF: Pulay mixing                            = Pulay
mix.SCF:    Variant                              = stable
mix.SCF:    History steps                        = 10
mix.SCF:    Linear mixing weight                 =     0.010000
mix.SCF:    Mixing weight                        =     0.010000
mix.SCF:    SVD condition                        = 0.1000E-07
redata: Save all siesta data in one NC              =   F
redata: ***********************************************************************

%block SCF.Mixers
  Pulay
%endblock SCF.Mixers

%block SCF.Mixer.Pulay
  # Mixing method
  method pulay
  variant stable

  # Mixing options
  weight 0.0100
  weight.linear 0.0100
  history 10
%endblock SCF.Mixer.Pulay
 
DM_history_depth set to one: no extrapolation allowed by default for geometry relaxation
Size of DM history Fstack: 1
Total number of electrons:   944.000000
Total ionic charge:   944.000000

* ProcessorY, Blocksize:    4  24


* Orbital distribution balance (max,min):    48    24

 Kpoints in:            6 . Kpoints trimmed:            5

siesta: k-grid: Number of k-points =     5
siesta: k-grid: Cutoff (effective) =    11.761 Ang
siesta: k-grid: Supercell and displacements
siesta: k-grid:    3   0   0      0.000
siesta: k-grid:    0   3   0      0.000
siesta: k-grid:    0   0   1      0.000
 
diag: Algorithm                                     = D&C
diag: Parallel over k                               =   F
diag: Use parallel 2D distribution                  =   T
diag: Parallel block-size                           = 24
diag: Parallel distribution                         =     4 x     5
diag: Used triangular part                          = Lower
diag: Absolute tolerance                            =  0.100E-15
diag: Orthogonalization factor                      =  0.100E-05
diag: Memory factor                                 =  1.0000

superc: Internal auxiliary supercell:     3 x     3 x     1  =       9
superc: Number of atoms, orbitals, and projectors:   1962   7848  17658
 
 Kpoints in:            6 . Kpoints trimmed:            5

transiesta: k-grid: Number of Green function k-points =     5
transiesta: k-grid: Supercell and displacements
transiesta: k-grid:    3   0   0      0.000
transiesta: k-grid:    0   3   0      0.000
transiesta: k-grid:    0   0   1      0.000
 
ts: **************************************************************
ts: Voltage                                         =    0.0000 Volts
ts: Save H and S matrices                           =    T
ts: Electronic temperature                          =  299.997806 K
ts: Transport along unit-cell vector                =    A3
ts: Transport along Cartesian vector                =    Z
ts: Fixing Hartree potential at electrode-plane     =    Right
ts: Fix Hartree potential fraction                  =    1.0000
ts: Hartree potential offset                        =    0.000000 eV
ts: Solution method                                 =    BTD
ts: BTD pivoting method                             =    atom+Left
ts: BTD creation algorithm                          =    speed
ts: SCF.TS DM tolerance                             = 0.100E-03
ts: SCF.TS Hamiltonian tolerance                    =    0.001000 eV
ts: Initialize DM by                                =    diagon
ts: Initial DM for electrodes                       =    this
ts: *** TranSiesta will NOT update forces ***
ts: Will not correct charge fluctuations
ts: TS.SCF mixing options same as SCF
ts:           >> Electrodes << 
ts: >> Left
ts:   Electrode cell pivoting: E1, E2, E3           = A1, A2, A3
ts:   GF file                                       = siesta.TSGFLeft
ts:   Reuse existing GF-file                        =    T
ts:   Electrode TSHS file                           = Left.TSHS
ts:   # atoms used in electrode                     =   32
ts:   Electrode Bloch unity [E1 x E2 x E3]          = 1 x 1 x 1
ts:   Position in geometry                          = 1 -- 32
ts:   Semi-infinite direction for electrode         = negative wrt. E3
ts:   Chemical shift                                =    0.000000 eV
ts:   Electronic temperature                        =  299.997806 K
ts:   Gamma-only electrode                          =    F
ts:   Bulk H, S in electrode region                 =    T
ts:   Cross-terms are updated
ts:   Electrode self-energy imaginary Eta           =  0.1000E-03  eV
ts:   Electrode self-energy accuracy                =  0.1000E-13  eV
ts:   Electrode inter-layer distance (semi-inf)     =    1.3860  Ang
ts: >> Right
ts:   Electrode cell pivoting: E1, E2, E3           = A1, A2, A3
ts:   GF file                                       = siesta.TSGFRight
ts:   Reuse existing GF-file                        =    T
ts:   Electrode TSHS file                           = Right.TSHS
ts:   # atoms used in electrode                     =   32
ts:   Electrode Bloch unity [E1 x E2 x E3]          = 1 x 1 x 1
ts:   Position in geometry                          = 187 -- 218
ts:   Semi-infinite direction for electrode         = positive wrt. E3
ts:   Chemical shift                                =    0.000000 eV
ts:   Electronic temperature                        =  299.997806 K
ts:   Gamma-only electrode                          =    F
ts:   Bulk H, S in electrode region                 =    T
ts:   Cross-terms are updated
ts:   Electrode self-energy imaginary Eta           =  0.1000E-03  eV
ts:   Electrode self-energy accuracy                =  0.1000E-13  eV
ts:   Electrode inter-layer distance (semi-inf)     =    1.3860  Ang
ts:  ----------------- Contour ----------------- 
ts:            >> Residual contour << 
ts: Pole chemical potential                         =    0.0000 eV
ts:    Chemical potential temperature               =  299.9978 K
ts:    Number of poles                              =   16
ts:    Top energy point                             =    2.5989 eV
ts:          >> Equilibrium contour << 
ts: Contour name                                    =    TS.Contour.c-Left
ts:   circle contour E_min                          =  -40.0000 eV
ts:   circle contour E_max                          =   -0.2585 eV
ts:   circle contour points                         =   25
ts:   circle contour method                         =    Gauss-Legendre
ts: Contour name                                    =    TS.Contour.t-Left
ts:   tail contour E_min                            =   -0.2585 eV
ts:   tail contour E_max                            =     Infinity
ts:   tail contour points                           =   10
ts:   tail contour method                           =    Gauss-Fermi (0kT)
ts: **************************************************************
 
************************ Begin: TS CHECKS AND WARNINGS ************************
Without loosing performance you can increase the equilibrium integration precision.
You can add 9 more energy points in the equilibrium contours, for FREE!
This is 9 more energy points per chemical potential.
ts: ***       TranSiesta will NOT update forces       ***
ts: *** ALL FORCES AFTER TRANSIESTA HAS RUN ARE WRONG ***
************************ End: TS CHECKS AND WARNINGS **************************


>>> TranSiesta block information for FDF-file START <<<

%block TS.ChemPots
  Left
%endblock TS.ChemPots

%block TS.ChemPot.Left
  mu  V/2
  contour.eq
   begin
    c-Left
    t-Left
   end
%endblock TS.ChemPot.Left
%block TS.Contour.c-Left
  part circle
     from -40.00000 eV + V/2 to -10. kT + V/2
      points 25
        method g-legendre
%endblock TS.Contour.c-Left
%block TS.Contour.t-Left
  part tail
     from prev to + inf
      points 10
        method g-fermi
%endblock TS.Contour.t-Left

>>> TranSiesta block information for FDF-file END <<<


transiesta: Regions of atoms:
   ## (32): Elec.Left
     [ 1 -- 32 ]
   ## (32): Elec.Right
     [ 187 -- 218 ]
   -- (154): Device
     [ 33 -- 186 ]
 
  <sparsity:Left.TSHS
    nrows_g=128 nrows=128 sparsity=4.1875 nnzs=68608, refcount: 3>
  <sparsity:(TM [--,--, 0] of: Left.TSHS)
    nrows_g=128 nrows=128 sparsity=2.9648 nnzs=48576, refcount: 3>
  <sparsity:(TM [--,--,-1] of: Left.TSHS)
    nrows_g=128 nrows=128 sparsity=.6113 nnzs=10016, refcount: 3>
 Left principal cell is perfect!

Calculating all surface Green functions for: Left
 Fermi level shift in electrode (chemical potential) :        0.00000  eV
 Atoms available    / used atoms   :     32 /     32
 Orbitals available / used orbitals:    128 /    128
 Total self-energy calculations: 255
 Saving surface Green functions in: siesta.TSGFLeft
 Estimated file size:     66.250 MB
 Lopez Sancho, Lopez Sancho & Rubio recursive surface self-energy calculation...
 Lopez Sancho, Lopez Sancho & Rubio: Mean/std iterations:     3.6941 /     0.6864
 Lopez Sancho, Lopez Sancho & Rubio: Min/Max iterations :          3 /          5
Done creating 'siesta.TSGFLeft'.

  <sparsity:Right.TSHS
    nrows_g=128 nrows=128 sparsity=4.1875 nnzs=68608, refcount: 3>
  <sparsity:(TM [--,--, 0] of: Right.TSHS)
    nrows_g=128 nrows=128 sparsity=2.9648 nnzs=48576, refcount: 3>
  <sparsity:(TM [--,--, 1] of: Right.TSHS)
    nrows_g=128 nrows=128 sparsity=.6113 nnzs=10016, refcount: 3>
 Right principal cell is perfect!

Calculating all surface Green functions for: Right
 Fermi level shift in electrode (chemical potential) :        0.00000  eV
 Atoms available    / used atoms   :     32 /     32
 Orbitals available / used orbitals:    128 /    128
 Total self-energy calculations: 255
 Saving surface Green functions in: siesta.TSGFRight
 Estimated file size:     66.250 MB
 Lopez Sancho, Lopez Sancho & Rubio recursive surface self-energy calculation...
 Lopez Sancho, Lopez Sancho & Rubio: Mean/std iterations:     3.6941 /     0.6864
 Lopez Sancho, Lopez Sancho & Rubio: Min/Max iterations :          3 /          5
Done creating 'siesta.TSGFRight'.


                     ====================================
                        Single-point calculation
                     ====================================

superc: Internal auxiliary supercell:     3 x     3 x     1  =       9
superc: Number of atoms, orbitals, and projectors:   1962   7848  17658

outcell: Unit cell vectors (Ang):
        7.840400    0.000000    0.000000
        0.000000    7.840400    0.000000
        0.000000    0.000000   89.273125

outcell: Cell vector modules (Ang)   :    7.840400    7.840400   89.273125
outcell: Cell angles (23,13,12) (deg):     90.0000     90.0000     90.0000
outcell: Cell volume (Ang**3)        :   5487.7861
<dSpData1D:S at geom step 0
  <sparsity:sparsity for geom step 0
    nrows_g=872 nrows=48 sparsity=.0149 nnzs=11324, refcount: 7>
  <dData1D:(new from dSpData1D) n=11324, refcount: 1>
refcount: 1>
new_DM -- step:     1
Initializing Density Matrix...
 
Attempting to read DM, EDM from TSDE file... Failed...
Attempting to read DM from file... Failed...
DM filled with atomic data:
<dSpData2D:DM initialized from atoms
  <sparsity:sparsity for geom step 0
    nrows_g=872 nrows=48 sparsity=.0149 nnzs=11324, refcount: 8>
  <dData2D:DM n=11324 m=1, refcount: 1>
refcount: 1>

transiesta: Initialization run using siesta

No. of atoms with KB's overlaping orbs in proc 0. Max # of overlaps:      82     104
New grid distribution:   1
           1       1:   24    1:    6    1:   54
           2       1:   24    1:    6   55:  108
           3       1:   24    1:    6  109:  162
           4       1:   24    1:    6  163:  216
           5       1:   24    1:    6  217:  270
           6       1:   24    7:   12    1:   54
           7       1:   24    7:   12   55:  108
           8       1:   24    7:   12  109:  162
           9       1:   24    7:   12  163:  216
          10       1:   24    7:   12  217:  270
          11       1:   24   13:   18    1:   54
          12       1:   24   13:   18   55:  108
          13       1:   24   13:   18  109:  162
          14       1:   24   13:   18  163:  216
          15       1:   24   13:   18  217:  270
          16       1:   24   19:   24    1:   54
          17       1:   24   19:   24   55:  108
          18       1:   24   19:   24  109:  162
          19       1:   24   19:   24  163:  216
          20       1:   24   19:   24  217:  270

InitMesh: MESH =    48 x    48 x   540 =     1244160
InitMesh: (bp) =    24 x    24 x   270 =      155520
InitMesh: Mesh cutoff (required, used) =   100.000   101.122 Ry
ExtMesh (bp) on 0 =    68 x    50 x    98 =      333200
New grid distribution:   2
           1       1:   24    1:   24    1:   40
           2       1:   24    1:   24   51:   59
           3       1:   24    1:   12  107:  135
           4       1:   24    1:   12  175:  193
           5       1:   24    1:   12  222:  270
           6       1:   24    1:   24   41:   50
           7       1:   24    1:   24   79:   87
           8       1:   24    1:   24  154:  164
           9       1:   24    1:   24  203:  212
          10       1:   24    1:   12   60:   78
          11       1:   24    1:   24   98:  106
          12       1:   24   13:   24  107:  135
          13       1:   24   13:   24   60:   78
          14       1:   24    1:   24  165:  174
          15       1:   24   13:   24  222:  270
          16       1:   24    1:   24  194:  202
          17       1:   24    1:   24   88:   97
          18       1:   24    1:   24  136:  153
          19       1:   24   13:   24  175:  193
          20       1:   24    1:   24  213:  221
New grid distribution:   3
           1       1:   24    1:   24    1:   33
           2       1:   24    1:   12  171:  192
           3       1:   24    1:   24  148:  158
           4       1:   24    1:   24  159:  170
           5       1:   24    1:   12  228:  270
           6       1:   24   13:   24   57:   78
           7       1:   24    1:   12   57:   78
           8       1:   24    1:   24  136:  147
           9       1:   24    1:   24  193:  204
          10       1:   24    1:   24   91:  101
          11       1:   24    1:   24   34:   44
          12       1:   24    1:   24   79:   90
          13       1:   24   13:   24  114:  135
          14       1:   24    1:   24  205:  215
          15       1:   24   13:   24  228:  270
          16       1:   24    1:   24   45:   56
          17       1:   24    1:   24  102:  113
          18       1:   24    1:   12  114:  135
          19       1:   24   13:   24  171:  192
          20       1:   24    1:   24  216:  227
Setting up quadratic distribution...
ExtMesh (bp) on 0 =    68 x    68 x    84 =      388416
PhiOnMesh: Number of (b)points on node 0 =                23040
PhiOnMesh: nlist on node 0 =               188960
 
ts: Using electrode: Right for Hartree correction
ts: Grid fraction plane  0.89574
ts: Grid point plane (Ang):       0.00000       0.00000      79.96558
ts-Vha: -0.27837E-04 eV

stepf: Fermi-Dirac step function
ts-Vha:  0.27739E+02 eV

siesta: Program's energy decomposition (eV):
siesta: Ebs     =    -43798.983480
siesta: Eions   =     55703.243667
siesta: Ena     =     12138.519450
siesta: Ekin    =     19463.768129
siesta: Enl     =     -1280.361065
siesta: Eso     =         0.000000
siesta: Eldau   =         0.000000
siesta: DEna    =       222.518765
siesta: DUscf   =       190.829786
siesta: DUext   =         0.000000
siesta: Enegf   =         0.000000
siesta: Exc     =    -14300.503494
siesta: eta*DQ  =         0.000000
siesta: Emadel  =         0.000000
siesta: Emeta   =         0.000000
siesta: Emolmec =         0.000000
siesta: Ekinion =         0.000000
siesta: Eharris =    -39026.107794
siesta: Etot    =    -39268.472095
siesta: FreeEng =    -39268.520303

        iscf     Eharris(eV)        E_KS(eV)     FreeEng(eV)     dDmax    Ef(eV) dHmax(eV)
   scf:    1   -39026.107794   -39268.472095   -39268.520303  1.632826 -3.902306 52.400675
timer: Routine,Calls,Time,% = IterSCF        1       2.731  65.16
ts-Vha:  0.32683E+01 eV
   scf:    2   -39312.740771   -39306.107952   -39306.167601  0.092583 -4.046211  6.644238
ts-Vha:  0.26189E+01 eV
   scf:    3   -39311.163621   -39308.661327   -39308.719494  0.007763 -4.074479  6.257925
ts-Vha: -0.56686E+00 eV
   scf:    4   -39346.164671   -39329.421459   -39329.478920  0.071451 -4.324094  6.742053
ts-Vha: -0.25787E+01 eV
   scf:    5   -39337.434294   -39333.595242   -39333.652500  0.020578 -4.374060  7.954349
ts-Vha: -0.29790E+00 eV
   scf:    6   -39353.212621   -39344.210251   -39344.270467  0.055947 -4.445416  2.693162
ts-Vha:  0.16212E+02 eV
   scf:    7   -39315.581487   -39336.687334   -39336.753589  0.063869 -4.300021 33.223699
ts-Vha:  0.28498E+02 eV
   scf:    8   -39272.965618   -39308.913214   -39308.960187  0.039759 -4.237393 58.773471
ts-Vha:  0.79641E+01 eV
   scf:    9   -39363.400259   -39350.562882   -39350.634654  0.072771 -4.296852 13.333789
ts-Vha: -0.27605E+03 eV
   scf:   10   -27485.113414   -35435.681915   -35435.824178  0.594284 -5.363701563.565779
ts-Vha: -0.27966E+03 eV
   scf:   11   -35233.397384   -35334.859744   -35334.996625  0.010093 -5.382723570.806213
ts-Vha: -0.14677E+02 eV
   scf:   12   -39821.026974   -39338.580518   -39338.642267  0.537292 -4.534756 35.106174
ts-Vha: -0.12223E+02 eV
   scf:   13   -39346.995052   -39342.974222   -39343.039980  0.012376 -4.527125 30.287274
ts-Vha: -0.31049E+03 eV
   scf:   14   -24687.394427   -34300.188084   -34300.325774  0.642217 -5.436906647.909271
ts-Vha: -0.24519E+03 eV
   scf:   15   -37704.642144   -36103.888515   -36103.988238  0.116787 -5.110718510.236735
ts-Vha: -0.24127E+03 eV
   scf:   16   -36326.635662   -36215.787116   -36215.889640  0.010330 -5.097599501.448444
ts-Vha: -0.16744E+03 eV
   scf:   17   -39183.575555   -37849.123194   -37849.247722  0.182208 -4.980646344.735315
ts-Vha: -0.12982E+03 eV
   scf:   18   -38981.035999   -38453.622565   -38453.722820  0.099634 -4.901482267.552070
ts-Vha: -0.26936E+03 eV
   scf:   19   -31663.858399   -35556.954623   -35557.091459  0.275228 -5.275437556.957172
ts-Vha: -0.33798E+03 eV
   scf:   20   -30982.880928   -33391.770869   -33391.893766  0.169022 -5.929342700.384307
ts-Vha: -0.60347E+02 eV
   scf:   21   -40942.466201   -39159.417267   -39159.498467  0.579004 -4.702176127.661675
ts-Vha: -0.16063E+03 eV
   scf:   22   -36270.563609   -37981.102353   -37981.218531  0.234573 -4.923496332.538028
ts-Vha: -0.74942E+01 eV
   scf:   23   -39493.763563   -39350.951159   -39351.008763  0.341004 -4.415387 19.259922
ts-Vha: -0.22333E+01 eV
   scf:   24   -39354.478685   -39353.427410   -39353.487240  0.016792 -4.303946  8.198894
ts-Vha: -0.61863E+02 eV
   scf:   25   -38753.425161   -39146.106706   -39146.195409  0.168267 -4.696132131.375429
ts-Vha: -0.25187E+02 eV
   scf:   26   -39419.673371   -39317.461174   -39317.524877  0.103250 -4.513468 55.931913
ts-Vha: -0.23615E+02 eV
   scf:   27   -39325.951328   -39321.787606   -39321.849867  0.009406 -4.499679 52.855960
ts-Vha: -0.12286E+03 eV
   scf:   28   -37227.812228   -38535.294258   -38535.390071  0.242844 -4.855029256.298310
ts-Vha: -0.64646E+02 eV
   scf:   29   -39540.401189   -39132.543986   -39132.630367  0.181176 -4.738386136.767787
ts-Vha: -0.15965E+03 eV
   scf:   30   -36341.749382   -37982.579112   -37982.693277  0.241865 -4.948535330.372100
ts-Vha: -0.14368E+03 eV
   scf:   31   -38477.876397   -38236.745870   -38236.849389  0.041437 -4.904657297.932071
ts-Vha: -0.27499E+02 eV
   scf:   32   -39671.449324   -39311.016518   -39311.083681  0.276798 -4.548522 60.079931
ts-Vha: -0.60078E+01 eV
   scf:   33   -39369.893709   -39351.721702   -39351.781392  0.067751 -4.423830 16.248726
ts-Vha: -0.38942E+01 eV
   scf:   34   -39354.932002   -39353.657522   -39353.716043  0.033459 -4.516785 10.523614
ts-Vha: -0.78367E+01 eV
   scf:   35   -39347.810289   -39351.035644   -39351.094815  0.011795 -4.585587 17.744157
ts-Vha: -0.76340E+01 eV
   scf:   36   -39351.193384   -39351.121949   -39351.181067  0.004581 -4.582555 17.559784
ts-Vha: -0.64275E+01 eV
   scf:   37   -39353.215593   -39352.259862   -39352.318845  0.009086 -4.582213 14.272660
ts-Vha: -0.81456E+01 eV
   scf:   38   -39348.388040   -39350.491566   -39350.552810  0.013173 -4.546828 19.175718
ts-Vha: -0.10215E+03 eV
   scf:   39   -37750.225480   -38783.853746   -38783.977330  0.255872 -4.829329211.333782
ts-Vha: -0.12401E+02 eV
   scf:   40   -39479.477479   -39345.444335   -39345.511855  0.251205 -4.608526 27.567769
ts-Vha: -0.18585E+02 eV
   scf:   41   -39319.872225   -39333.763365   -39333.832621  0.025597 -4.640667 39.864462
ts-Vha: -0.52839E+02 eV
   scf:   42   -38996.682121   -39196.657416   -39196.724187  0.108704 -4.688151110.332778
ts-Vha: -0.59682E+02 eV
   scf:   43   -39112.344877   -39155.673473   -39155.753185  0.016699 -4.731982124.255316
ts-Vha: -0.30451E+02 eV
   scf:   44   -39400.242854   -39300.423763   -39300.491654  0.085218 -4.652967 63.919806
ts-Vha: -0.67607E+01 eV
   scf:   45   -39373.042309   -39351.912328   -39351.970841  0.074879 -4.585854 15.483430
ts-Vha: -0.25745E+01 eV
   scf:   46   -39355.474573   -39354.220906   -39354.278918  0.016307 -4.550370  7.223406
ts-Vha: -0.61442E+01 eV
   scf:   47   -39349.558463   -39352.282290   -39352.340209  0.018022 -4.627495 14.377490
ts-Vha: -0.41486E+02 eV
   scf:   48   -39085.907133   -39253.852149   -39253.920561  0.128281 -4.589816 88.215719
ts-Vha: -0.10713E+02 eV
   scf:   49   -39388.572884   -39347.469384   -39347.538453  0.106595 -4.599468 23.865771
ts-Vha: -0.22804E+03 eV
   scf:   50   -31220.105796   -36539.763342   -36539.885060  0.458080 -5.184227464.748707
ts-Vha: -0.68206E+01 eV
   scf:   51   -39560.150679   -39351.725693   -39351.784325  0.463526 -4.546105 16.258156
ts-Vha: -0.48909E+02 eV
   scf:   52   -38987.068069   -39217.348897   -39217.411393  0.132860 -4.694741101.769243
ts-Vha: -0.20989E+03 eV
   scf:   53   -33270.367436   -36940.236939   -36940.370682  0.335999 -5.145721428.661857
ts-Vha: -0.21359E+03 eV
   scf:   54   -36768.684244   -36854.836304   -36854.967044  0.009228 -5.162966435.888577
ts-Vha: -0.23770E+03 eV
   scf:   55   -35545.078147   -36218.493173   -36218.612038  0.054121 -5.244571491.181685
ts-Vha: -0.15858E+03 eV
   scf:   56   -39394.184075   -37989.820828   -37989.931684  0.216885 -5.052644321.812281
ts-Vha: -0.49133E+01 eV
   scf:   57   -39457.526581   -39353.412271   -39353.469942  0.335003 -4.593433 11.630878
ts-Vha: -0.46369E+01 eV
   scf:   58   -39353.979374   -39353.703251   -39353.761025  0.003184 -4.573778 10.982222
ts-Vha: -0.45527E+01 eV
   scf:   59   -39354.178847   -39353.954682   -39354.013210  0.008355 -4.527550 10.714114
ts-Vha: -0.35439E+01 eV
   scf:   60   -39354.668622   -39354.339241   -39354.397120  0.006359 -4.521935  8.882928
ts-Vha: -0.52954E+01 eV
   scf:   61   -39351.352025   -39353.080408   -39353.140213  0.019262 -4.474327 12.910534
ts-Vha: -0.51959E+01 eV
   scf:   62   -39352.850543   -39353.033657   -39353.094907  0.014429 -4.495875 13.000809
ts-Vha: -0.27599E+03 eV
   scf:   63   -26574.079492   -35019.187645   -35019.312211  0.567927 -5.440781583.049374
ts-Vha: -0.31917E+03 eV
   scf:   64   -31982.012220   -33554.301925   -33554.432561  0.117083 -5.891930673.757292
ts-Vha: -0.27471E+03 eV
   scf:   65   -36388.215566   -35025.945704   -35026.067801  0.118368 -5.412486583.792256
ts-Vha: -0.27595E+03 eV
   scf:   66   -34942.257104   -34984.162081   -34984.284174  0.006014 -5.419917586.898278
ts-Vha: -0.23836E+03 eV
   scf:   67   -37249.709396   -36167.266632   -36167.387668  0.145158 -5.318537494.192987
ts-Vha: -0.68962E+01 eV
   scf:   68   -39574.720817   -39351.776198   -39351.835573  0.477913 -4.603335 16.055018
ts-Vha: -0.81669E+01 eV
   scf:   69   -39349.427231   -39350.646055   -39350.708055  0.007940 -4.617043 18.603103
ts-Vha: -0.63121E+01 eV
   scf:   70   -39353.466968   -39352.146785   -39352.205673  0.012714 -4.596828 15.023025
ts-Vha: -0.61784E+01 eV
   scf:   71   -39352.277704   -39352.215782   -39352.274308  0.003500 -4.612642 14.786319
ts-Vha: -0.68662E+01 eV
   scf:   72   -39351.139824   -39351.720060   -39351.778394  0.013955 -4.665311 15.711702
ts-Vha: -0.79606E+01 eV
   scf:   73   -39349.861814   -39350.845981   -39350.905561  0.011896 -4.651081 17.647178
ts-Vha: -0.94278E+02 eV
   scf:   74   -37972.941196   -38862.000139   -38862.119316  0.212134 -4.954481190.307441
ts-Vha: -0.19096E+02 eV
   scf:   75   -39501.123406   -39332.541105   -39332.613653  0.177107 -4.719919 40.056999
ts-Vha: -0.74154E+01 eV
   scf:   76   -39362.796617   -39351.474785   -39351.534466  0.033048 -4.587003 16.947307
ts-Vha: -0.32361E+03 eV
   scf:   77   -21604.715615   -33326.199916   -33326.319680  0.716771 -6.004641691.485360
ts-Vha: -0.28586E+03 eV
   scf:   78   -36031.389215   -34726.150382   -34726.285210  0.117889 -5.493937602.812109
ts-Vha: -0.15432E+02 eV
   scf:   79   -39857.775403   -39340.030997   -39340.102351  0.580370 -4.585636 34.132655
ts-Vha: -0.17788E+02 eV
   scf:   80   -39330.101318   -39335.229566   -39335.301180  0.013191 -4.589776 39.192655
ts-Vha: -0.90432E+02 eV
   scf:   81   -38132.395148   -38882.180594   -38882.303052  0.171139 -4.913456188.981928
ts-Vha: -0.34634E+02 eV
   scf:   82   -39509.670723   -39283.247828   -39283.315609  0.119324 -4.658984 73.754904
ts-Vha: -0.54902E+01 eV
   scf:   83   -39374.897823   -39353.113972   -39353.171858  0.105640 -4.592270 12.590317
ts-Vha: -0.68736E+01 eV
   scf:   84   -39350.942504   -39352.080767   -39352.139219  0.005100 -4.632037 15.345223
ts-Vha: -0.56007E+02 eV
   scf:   85   -38863.767722   -39174.620317   -39174.694286  0.161620 -4.818308116.514931
ts-Vha: -0.20882E+03 eV
   scf:   86   -33474.834505   -36954.763245   -36954.887182  0.343270 -5.141016431.391970
ts-Vha: -0.17416E+02 eV
   scf:   87   -39734.462598   -39336.337806   -39336.409686  0.435458 -4.637581 37.477747
ts-Vha: -0.49692E+02 eV
   scf:   88   -39017.753958   -39207.453938   -39207.513900  0.110064 -4.726297106.822575
ts-Vha: -0.37336E+02 eV
   scf:   89   -39329.777236   -39273.549734   -39273.619005  0.039379 -4.609687 80.202211
ts-Vha: -0.46400E+02 eV
   scf:   90   -39148.718460   -39215.808679   -39215.865830  0.073540 -4.770040101.894593
ts-Vha: -0.54904E+02 eV
   scf:   91   -39148.145889   -39183.889565   -39183.953623  0.043997 -4.782886114.102151
ts-Vha: -0.70865E+02 eV
   scf:   92   -38921.696236   -39061.309019   -39061.410779  0.064078 -4.901487147.789439
ts-Vha: -0.28591E+02 eV
   scf:   93   -39449.679629   -39308.536943   -39308.605969  0.125575 -4.627742 60.224272
ts-Vha: -0.36490E+02 eV
   scf:   94   -39244.108562   -39278.207336   -39278.277614  0.032366 -4.615107 77.110248
ts-Vha: -0.72647E+01 eV
   scf:   95   -39379.568028   -39351.353720   -39351.414267  0.096343 -4.546717 17.699794
ts-Vha: -0.24098E+02 eV
   scf:   96   -39272.164618   -39319.503441   -39319.572479  0.064955 -4.633548 52.369487
ts-Vha: -0.11269E+02 eV
   scf:   97   -39364.639939   -39346.514158   -39346.583478  0.056158 -4.605425 26.125559
ts-Vha: -0.69997E+01 eV
   scf:   98   -39355.243492   -39351.359151   -39351.419562  0.012245 -4.564716 17.280256
ts-Vha: -0.69524E+01 eV
   scf:   99   -39351.674104   -39351.522754   -39351.583048  0.003286 -4.555782 17.092612
ts-Vha: -0.77808E+01 eV
   scf:  100   -39350.649089   -39351.100463   -39351.161424  0.004320 -4.558603 18.361873
ts-Vha: -0.15210E+02 eV
   scf:  101   -39326.993791   -39340.592155   -39340.665614  0.025743 -4.635646 33.283538
ts-Vha: -0.86611E+01 eV
   scf:  102   -39358.239548   -39350.801777   -39350.863846  0.022710 -4.613823 19.503366
ts-Vha: -0.67855E+01 eV
   scf:  103   -39353.941699   -39352.504018   -39352.564955  0.016037 -4.521210 16.442911
ts-Vha: -0.43351E+01 eV
   scf:  104   -39355.561884   -39354.186792   -39354.247926  0.008821 -4.482227 11.273484
ts-Vha: -0.47361E+01 eV
   scf:  105   -39353.690182   -39353.943122   -39354.004274  0.001905 -4.481119 12.143152
ts-Vha: -0.88788E-01 eV
   scf:  106   -39356.071955   -39355.620154   -39355.681494  0.015075 -4.454072  1.846499
ts-Vha: -0.16989E+00 eV
   scf:  107   -39355.637647   -39355.630125   -39355.691395  0.001077 -4.461354  1.997147
ts-Vha: -0.23427E+01 eV
   scf:  108   -39354.588900   -39355.247373   -39355.311624  0.017635 -4.516565  6.371155
ts-Vha: -0.29011E+01 eV
   scf:  109   -39354.795079   -39355.031898   -39355.095705  0.002324 -4.527730  7.684463
ts-Vha: -0.21327E+01 eV
   scf:  110   -39355.597980   -39355.347052   -39355.411520  0.004707 -4.488998  5.890835
ts-Vha: -0.12109E+01 eV
   scf:  111   -39355.563053   -39355.486703   -39355.549724  0.009406 -4.515956  3.928392
ts-Vha:  0.57893E+00 eV
   scf:  112   -39355.626479   -39355.640241   -39355.704219  0.005132 -4.510436  0.387452
ts-Vha:  0.23377E+01 eV
   scf:  113   -39354.931290   -39355.386070   -39355.454728  0.006945 -4.498197  4.606814
ts-Vha:  0.55414E+01 eV
   scf:  114   -39351.672381   -39353.904731   -39353.974791  0.017723 -4.480142 12.394098
ts-Vha:  0.67645E+01 eV
   scf:  115   -39352.418197   -39353.197298   -39353.267274  0.004687 -4.475354 14.646557
ts-Vha:  0.99550E+01 eV
   scf:  116   -39346.928208   -39350.335448   -39350.407136  0.009117 -4.471685 21.384863
ts-Vha:  0.12493E+01 eV
   scf:  117   -39356.478640   -39355.648607   -39355.714323  0.030131 -4.492702  1.945900
ts-Vha:  0.73756E+00 eV
   scf:  118   -39355.715469   -39355.690416   -39355.755159  0.003362 -4.492350  0.887315
ts-Vha:  0.28050E+00 eV
   scf:  119   -39355.686535   -39355.695593   -39355.759382  0.002446 -4.496429  0.771653
ts-Vha:  0.15544E+01 eV
   scf:  120   -39355.289051   -39355.567569   -39355.635381  0.007191 -4.482259  3.199397
ts-Vha:  0.19177E+00 eV
   scf:  121   -39355.661768   -39355.694289   -39355.758234  0.006738 -4.488349  1.033162
ts-Vha:  0.43645E+00 eV
   scf:  122   -39355.692975   -39355.695686   -39355.760400  0.001175 -4.490022  0.533653
ts-Vha:  0.59193E+00 eV
   scf:  123   -39355.680937   -39355.689519   -39355.754880  0.000680 -4.483689  0.698005
ts-Vha:  0.56913E+00 eV
   scf:  124   -39355.699269   -39355.694845   -39355.759699  0.001363 -4.486769  0.598639
ts-Vha:  0.82973E-01 eV
   scf:  125   -39355.674261   -39355.692145   -39355.755977  0.001445 -4.494006  1.225474
ts-Vha:  0.21620E+01 eV
   scf:  126   -39354.831138   -39355.431837   -39355.500594  0.011034 -4.494532  4.711840
ts-Vha:  0.22761E+01 eV
   scf:  127   -39355.344085   -39355.389139   -39355.457794  0.001218 -4.487716  5.078943
ts-Vha:  0.29602E+01 eV
   scf:  128   -39354.908277   -39355.164320   -39355.233578  0.002966 -4.490436  6.704196
ts-Vha:  0.12988E+02 eV
   scf:  129   -39330.992232   -39345.978609   -39346.052778  0.034160 -4.481349 29.044343
ts-Vha:  0.14647E+01 eV
   scf:  130   -39357.300054   -39355.613842   -39355.681170  0.040410 -4.491951  2.864523
ts-Vha:  0.75230E+00 eV
   scf:  131   -39355.746139   -39355.701168   -39355.766542  0.003849 -4.503709  0.940042
ts-Vha:  0.87303E+00 eV
   scf:  132   -39355.684013   -39355.693134   -39355.758903  0.000578 -4.502865  1.240502
ts-Vha:  0.11485E+01 eV
   scf:  133   -39355.630953   -39355.665188   -39355.731774  0.001491 -4.502785  1.982679
ts-Vha:  0.14234E+01 eV
   scf:  134   -39355.560557   -39355.617483   -39355.684421  0.002162 -4.506066  2.836291
ts-Vha:  0.17381E+01 eV
   scf:  135   -39355.477978   -39355.551931   -39355.619432  0.001832 -4.504916  3.691714
ts-Vha:  0.33458E+01 eV
   scf:  136   -39354.232917   -39354.993489   -39355.061401  0.008739 -4.504908  7.911573
ts-Vha:  0.20904E+01 eV
   scf:  137   -39355.824256   -39355.471830   -39355.539081  0.007530 -4.515152  4.564723
ts-Vha:  0.25450E+01 eV
   scf:  138   -39355.167072   -39355.327726   -39355.395279  0.002568 -4.513797  5.773004
ts-Vha:  0.27439E+01 eV
   scf:  139   -39355.168869   -39355.250060   -39355.317720  0.001365 -4.513357  6.310423
ts-Vha:  0.15032E+01 eV
   scf:  140   -39355.845493   -39355.611647   -39355.678122  0.007059 -4.515694  2.970341
ts-Vha:  0.13378E+01 eV
   scf:  141   -39355.667714   -39355.640853   -39355.707061  0.000983 -4.518114  2.516116
ts-Vha:  0.58724E+00 eV
   scf:  142   -39355.739811   -39355.714450   -39355.778470  0.004821 -4.522276  0.470171
ts-Vha:  0.77348E+00 eV
   scf:  143   -39355.688419   -39355.703476   -39355.768348  0.002029 -4.521845  1.021711
ts-Vha:  0.19812E+01 eV
   scf:  144   -39355.231151   -39355.521311   -39355.588702  0.005921 -4.525656  4.075622
ts-Vha:  0.11518E+01 eV
   scf:  145   -39355.777750   -39355.678523   -39355.743902  0.004711 -4.529236  1.845341
ts-Vha:  0.17960E+01 eV
   scf:  146   -39355.434241   -39355.572366   -39355.639535  0.003160 -4.523681  3.495820
ts-Vha:  0.29465E+01 eV
   scf:  147   -39354.728406   -39355.206105   -39355.274315  0.007414 -4.516614  6.641802
ts-Vha:  0.19485E+01 eV
   scf:  148   -39355.798623   -39355.547504   -39355.614874  0.006064 -4.524045  3.858411
ts-Vha:  0.93536E+00 eV
   scf:  149   -39355.779431   -39355.706062   -39355.770808  0.005436 -4.531809  1.127665
ts-Vha:  0.93402E+00 eV
   scf:  150   -39355.707894   -39355.707068   -39355.771790  0.000981 -4.535396  1.069198
ts-Vha:  0.17424E+01 eV
   scf:  151   -39355.371009   -39355.573813   -39355.640707  0.005757 -4.521330  3.517003
ts-Vha:  0.11511E+01 eV
   scf:  152   -39355.754263   -39355.680630   -39355.746039  0.004437 -4.524570  1.834917
ts-Vha:  0.11482E+01 eV
   scf:  153   -39355.691168   -39355.686063   -39355.751409  0.000603 -4.529528  1.726391
ts-Vha:  0.13235E+01 eV
   scf:  154   -39355.645810   -39355.666986   -39355.732727  0.000867 -4.529725  2.154686
ts-Vha:  0.72667E+00 eV
   scf:  155   -39355.740032   -39355.719036   -39355.782703  0.003332 -4.541552  0.479647
ts-Vha:  0.78587E+00 eV
   scf:  156   -39355.712578   -39355.716065   -39355.780046  0.000420 -4.538943  0.676437
ts-Vha:  0.67067E+00 eV
   scf:  157   -39355.723714   -39355.720471   -39355.784010  0.000512 -4.542382  0.353021
ts-Vha:  0.89484E+00 eV
   scf:  158   -39355.696884   -39355.710734   -39355.775112  0.001413 -4.537411  0.981578
ts-Vha:  0.70402E+00 eV
   scf:  159   -39355.725831   -39355.719934   -39355.783554  0.001025 -4.541052  0.434596
ts-Vha:  0.83494E+00 eV
   scf:  160   -39355.705822   -39355.713806   -39355.778009  0.000972 -4.537647  0.826948
ts-Vha:  0.71141E+00 eV
   scf:  161   -39355.724014   -39355.719877   -39355.783428  0.000991 -4.543986  0.435428
ts-Vha:  0.73350E+00 eV
   scf:  162   -39355.718764   -39355.719351   -39355.783019  0.000199 -4.543406  0.495601
ts-Vha:  0.75159E+00 eV
   scf:  163   -39355.718035   -39355.718712   -39355.782472  0.000241 -4.542879  0.545288
ts-Vha:  0.67123E+00 eV
   scf:  164   -39355.722691   -39355.721001   -39355.784367  0.000451 -4.545496  0.320479
ts-Vha:  0.60628E+00 eV
   scf:  165   -39355.722520   -39355.721967   -39355.785101  0.000288 -4.547423  0.137173
ts-Vha:  0.54024E+00 eV
   scf:  166   -39355.721945   -39355.722173   -39355.785047  0.000274 -4.551613  0.099779
ts-Vha:  0.73940E+00 eV
   scf:  167   -39355.711378   -39355.718854   -39355.782742  0.001623 -4.539538  0.514660
ts-Vha:  0.61674E+00 eV
   scf:  168   -39355.723812   -39355.722051   -39355.785396  0.000668 -4.545194  0.157094
ts-Vha:  0.57371E+00 eV
   scf:  169   -39355.722736   -39355.722482   -39355.785644  0.000176 -4.547741  0.041620
ts-Vha:  0.52166E+00 eV
   scf:  170   -39355.722737   -39355.722875   -39355.785916  0.000774 -4.550799  0.167728
ts-Vha:  0.50985E+00 eV
   scf:  171   -39355.722839   -39355.722866   -39355.785903  0.000162 -4.551812  0.197172
ts-Vha:  0.55049E+00 eV
   scf:  172   -39355.723143   -39355.723107   -39355.786349  0.000341 -4.549136  0.066725
ts-Vha:  0.53047E+00 eV
   scf:  173   -39355.722994   -39355.723070   -39355.786278  0.000179 -4.550538  0.118178
ts-Vha:  0.55500E+00 eV
   scf:  174   -39355.723088   -39355.723106   -39355.786401  0.000088 -4.549057  0.047651
ts-Vha:  0.58536E+00 eV
   scf:  175   -39355.722848   -39355.723027   -39355.786425  0.000172 -4.547927  0.055863
ts-Vha:  0.55310E+00 eV
   scf:  176   -39355.723343   -39355.723242   -39355.786480  0.000307 -4.550793  0.048597
ts-Vha:  0.55428E+00 eV
   scf:  177   -39355.723238   -39355.723240   -39355.786489  0.000044 -4.550928  0.046544
ts-Vha:  0.56293E+00 eV
   scf:  178   -39355.723173   -39355.723212   -39355.786511  0.000111 -4.550584  0.019434
ts-Vha:  0.62254E+00 eV
   scf:  179   -39355.721803   -39355.722681   -39355.786233  0.000242 -4.549320  0.162329
ts-Vha:  0.54934E+00 eV
   scf:  180   -39355.723222   -39355.723212   -39355.786484  0.000261 -4.553452  0.063962
ts-Vha:  0.55357E+00 eV
   scf:  181   -39355.723262   -39355.723239   -39355.786510  0.000066 -4.553110  0.052787
ts-Vha:  0.55158E+00 eV
   scf:  182   -39355.723229   -39355.723235   -39355.786493  0.000048 -4.553376  0.061871
ts-Vha:  0.54258E+00 eV
   scf:  183   -39355.723224   -39355.723234   -39355.786454  0.000053 -4.553939  0.088963
ts-Vha:  0.55892E+00 eV
   scf:  184   -39355.723179   -39355.723232   -39355.786548  0.000195 -4.553449  0.027068
ts-Vha:  0.57210E+00 eV
   scf:  185   -39355.723195   -39355.723220   -39355.786560  0.000078 -4.552844  0.010105
ts-Vha:  0.56241E+00 eV
   scf:  186   -39355.723258   -39355.723243   -39355.786559  0.000054 -4.553347  0.021649
ts-Vha:  0.56838E+00 eV
   scf:  187   -39355.723198   -39355.723222   -39355.786563  0.000024 -4.553018  0.003780
ts-Vha:  0.57601E+00 eV
   scf:  188   -39355.723141   -39355.723184   -39355.786565  0.000086 -4.552953  0.019088
ts-Vha:  0.56893E+00 eV
   scf:  189   -39355.723227   -39355.723208   -39355.786570  0.000044 -4.553609  0.001672
ts-Vha:  0.56991E+00 eV
   scf:  190   -39355.723188   -39355.723198   -39355.786571  0.000016 -4.553523  0.004311
ts-Vha:  0.56850E+00 eV
   scf:  191   -39355.723213   -39355.723206   -39355.786571  0.000019 -4.553571  0.001889
ts-Vha:  0.56961E+00 eV
   scf:  192   -39355.723193   -39355.723200   -39355.786571  0.000012 -4.553558  0.001890
ts-Vha:  0.56872E+00 eV
   scf:  193   -39355.723198   -39355.723199   -39355.786571  0.000010 -4.553648  0.001367
ts-Vha:  0.56948E+00 eV
   scf:  194   -39355.723192   -39355.723196   -39355.786572  0.000010 -4.553634  0.001453
ts-Vha:  0.56792E+00 eV
   scf:  195   -39355.723203   -39355.723199   -39355.786572  0.000018 -4.553777  0.003532
ts-Vha:  0.56912E+00 eV
   scf:  196   -39355.723185   -39355.723192   -39355.786572  0.000008 -4.553733  0.000495

SCF Convergence by DM+H criterion
max |DM_out - DM_in|         :     0.0000075727
max |H_out - H_in|      (eV) :     0.0004947443
SCF cycle converged after 196 iterations

                     ***************************
                     *  WELCOME TO TRANSIESTA  *
                     ***************************

ts-Vha:  0.56912E+00 eV

transiesta: created H and S sparsity pattern:
  <sparsity:(M of: G ((UC of: T T T sparsity for geom step 0)))
    nrows_g=872 nrows=872 sparsity=.1480 nnzs=112574, refcount: 1>

transiesta: update sparsity pattern same as H and S.

transiesta: Determining an optimal tri-matrix using: atom+Left
transiesta: Established a near-optimal partition for the tri-diagonal matrix.
BTD partitions (10): 
  [ 33, 95, [96] * 2, 80, 104, 112, [96] * 2, 64 ]
transiesta: Matrix elements in % of full matrix:  30.41831 %

transiesta: mem of electrodes (static):                     0.50MB
transiesta: mem of global update arrays (static):           5.15MB
transiesta: mem of tri-diagonal matrices:                   7.06MB
transiesta: Total memory usage:                            12.71MB

transiesta: Charge distribution, target =    944.00000
Total charge                  [Q]  :   944.00000
Device                        [D]  :   683.07371
Left                          [E1] :   125.54040
Left                 / device [C1] :     4.92271
Right                         [E2] :   125.54042
Right                / device [C2] :     4.92276
Other                         [O]  :     0.00000

transiesta: *** Notice that the forces are NOT updated ***
transiesta: *** Will set the forces to zero ***
transiesta: *** The forces are NOT updated ***
transiesta: ***  Will set the forces to 0  ***
ts-q:         D        E1        C1        E2        C2        dQ
ts-q:   680.337   125.540     4.312   125.540     4.314 -3.957E+0
ts-Vha:  0.21447E+01 eV

siesta: Program's energy decomposition (eV):
siesta: Ebs     =    -11211.934716
siesta: Eions   =     55703.243667
siesta: Ena     =     12138.519450
siesta: Ekin    =     18596.602160
siesta: Enl     =      -868.635718
siesta: Eso     =         0.000000
siesta: Eldau   =         0.000000
siesta: DEna    =       544.815137
siesta: DUscf   =        97.991784
siesta: DUext   =         0.000000
siesta: Enegf   =         0.000000
siesta: Exc     =    -14094.083504
siesta: eta*DQ  =         0.000000
siesta: Emadel  =         0.000000
siesta: Emeta   =         0.000000
siesta: Emolmec =         0.000000
siesta: Ekinion =         0.000000
siesta: Eharris =    -39176.382106
siesta: Etot    =    -39288.034357
siesta: FreeEng =    -39288.034357

        iscf     Eharris(eV)        E_KS(eV)     FreeEng(eV)     dDmax    Ef(eV) dHmax(eV)
ts-scf:    1   -39176.382106   -39288.034357   -39288.034357  0.173507 -4.553733 20.480221
timer: Routine,Calls,Time,% = TS             1       0.829   0.18
ts-q:         D        E1        C1        E2        C2        dQ
ts-q:   680.919   125.540     4.494   125.540     4.495 -3.012E+0
ts-Vha:  0.30026E+01 eV
ts-scf:    2   -39339.965391   -39314.240248   -39314.240248  0.040602 -4.553733 15.413074
ts-q:         D        E1        C1        E2        C2        dQ
ts-q:   681.920   125.540     4.735   125.540     4.736 -1.529E+0
ts-Vha:  0.44475E+01 eV
ts-scf:    3   -39367.279729   -39341.615249   -39341.615249  0.071237 -4.553733  7.549801
ts-q:         D        E1        C1        E2        C2        dQ
ts-q:   650.218   125.540     3.920   125.540     3.914 -3.487E+1
ts-Vha:  0.24811E+03 eV
ts-scf:    4   -18442.721078   -35047.501882   -35047.501882  0.556826 -4.553733603.759740
ts-q:         D        E1        C1        E2        C2        dQ
ts-q:   682.665   125.540     4.840   125.540     4.841 -5.723E-1
ts-Vha:  0.38648E+01 eV
ts-scf:    5   -39783.725953   -39350.622392   -39350.622392  0.561475 -4.553733  7.458471
ts-q:         D        E1        C1        E2        C2        dQ
ts-q:   682.731   125.540     4.844   125.540     4.844 -4.993E-1
ts-Vha:  0.33658E+01 eV
ts-scf:    6   -39352.054444   -39351.223611   -39351.223611  0.003132 -4.553733  6.328506
ts-q:         D        E1        C1        E2        C2        dQ
ts-q:   682.893   125.540     4.867   125.540     4.867 -2.920E-1
ts-Vha:  0.26758E+01 eV
ts-scf:    7   -39355.230763   -39352.975070   -39352.975070  0.008687 -4.553733  5.171032
ts-q:         D        E1        C1        E2        C2        dQ
ts-q:   682.798   125.540     4.855   125.540     4.855 -4.119E-1
ts-Vha:  0.24219E+01 eV
ts-scf:    8   -39350.961239   -39352.157634   -39352.157634  0.006751 -4.553733  3.775201
ts-q:         D        E1        C1        E2        C2        dQ
ts-q:   682.734   125.540     4.846   125.540     4.846 -4.922E-1
ts-Vha:  0.24111E+01 eV
ts-scf:    9   -39350.633920   -39351.501289   -39351.501289  0.004202 -4.553733  3.397360
mix: Pulay -- inversion failed, > SVD
ts-q:         D        E1        C1        E2        C2        dQ
ts-q:   682.837   125.540     4.861   125.540     4.862 -3.593E-1
ts-Vha:  0.23322E+01 eV
ts-scf:   10   -39353.973409   -39352.601061   -39352.601061  0.006584 -4.553733  3.733882
mix: Pulay -- inversion failed, > SVD
ts-q:         D        E1        C1        E2        C2        dQ
ts-q:   682.849   125.540     4.863   125.540     4.864 -3.436E-1
ts-Vha:  0.22903E+01 eV
ts-scf:   11   -39352.901535   -39352.733492   -39352.733492  0.000725 -4.553733  3.667569
mix: Pulay -- inversion failed, > SVD
ts-q:         D        E1        C1        E2        C2        dQ
ts-q:   682.852   125.540     4.864   125.540     4.864 -3.393E-1
ts-Vha:  0.22638E+01 eV
ts-scf:   12   -39352.821607   -39352.772763   -39352.772763  0.000209 -4.553733  3.598804
mix: Pulay -- inversion failed, > SVD
ts-q:         D        E1        C1        E2        C2        dQ
ts-q:   682.854   125.540     4.864   125.540     4.865 -3.365E-1
ts-Vha:  0.22383E+01 eV
ts-scf:   13   -39352.834832   -39352.800646   -39352.800646  0.000203 -4.553733  3.527275
mix: Pulay -- inversion failed, > SVD
ts-q:         D        E1        C1        E2        C2        dQ
ts-q:   682.853   125.540     4.864   125.540     4.865 -3.367E-1
ts-Vha:  0.22308E+01 eV
ts-scf:   14   -39352.800549   -39352.800846   -39352.800846  0.000144 -4.553733  3.495746
ts-q:         D        E1        C1        E2        C2        dQ
ts-q:   682.894   125.540     4.875   125.540     4.875 -2.750E-1
ts-Vha:  0.10389E+01 eV
ts-scf:   15   -39353.615971   -39353.256646   -39353.256646  0.009152 -4.553733  0.606348
ts-q:         D        E1        C1        E2        C2        dQ
ts-q:   682.886   125.540     4.874   125.540     4.874 -2.850E-1
ts-Vha:  0.10639E+01 eV
ts-scf:   16   -39353.080435   -39353.173913   -39353.173913  0.000474 -4.553733  0.663888
mix: Pulay -- inversion failed, > SVD
ts-q:         D        E1        C1        E2        C2        dQ
ts-q:   682.979   125.540     4.887   125.540     4.887 -1.664E-1
ts-Vha:  0.10051E+01 eV
ts-scf:   17   -39355.250366   -39354.168187   -39354.168187  0.005998 -4.553733  0.019428
mix: Pulay -- inversion failed, > SVD
ts-q:         D        E1        C1        E2        C2        dQ
ts-q:   682.980   125.540     4.887   125.540     4.887 -1.655E-1
ts-Vha:  0.10056E+01 eV
ts-scf:   18   -39354.181223   -39354.174267   -39354.174267  0.000056 -4.553733  0.020386
ts-q:         D        E1        C1        E2        C2        dQ
ts-q:   682.947   125.540     4.882   125.540     4.883 -2.067E-1
ts-Vha:  0.10211E+01 eV
ts-scf:   19   -39353.472782   -39353.846660   -39353.846660  0.002145 -4.553733  0.232256
ts-q:         D        E1        C1        E2        C2        dQ
ts-q:   682.978   125.540     4.887   125.540     4.887 -1.670E-1
ts-Vha:  0.10090E+01 eV
ts-scf:   20   -39354.550450   -39354.180350   -39354.180350  0.001993 -4.553733  0.018664
ts-q:         D        E1        C1        E2        C2        dQ
ts-q:   682.981   125.540     4.887   125.540     4.888 -1.634E-1
ts-Vha:  0.10066E+01 eV
ts-scf:   21   -39354.242879   -39354.209840   -39354.209840  0.000170 -4.553733  0.004241
ts-q:         D        E1        C1        E2        C2        dQ
ts-q:   682.980   125.540     4.888   125.540     4.888 -1.635E-1
ts-Vha:  0.10067E+01 eV
ts-scf:   22   -39354.222719   -39354.216328   -39354.216328  0.000105 -4.553733  0.003085
ts-q:         D        E1        C1        E2        C2        dQ
ts-q:   682.979   125.540     4.888   125.540     4.888 -1.636E-1
ts-Vha:  0.10067E+01 eV
ts-scf:   23   -39354.216321   -39354.216376   -39354.216376  0.000014 -4.553733  0.002826
ts-q:         D        E1        C1        E2        C2        dQ
ts-q:   682.979   125.540     4.888   125.540     4.888 -1.635E-1
ts-Vha:  0.10067E+01 eV
ts-scf:   24   -39354.219134   -39354.217715   -39354.217715  0.000010 -4.553733  0.003327
ts-q:         D        E1        C1        E2        C2        dQ
ts-q:   682.979   125.540     4.888   125.540     4.888 -1.636E-1
ts-Vha:  0.10070E+01 eV
ts-scf:   25   -39354.217679   -39354.217719   -39354.217719  0.000086 -4.553733  0.001045
ts-q:         D        E1        C1        E2        C2        dQ
ts-q:   682.979   125.540     4.888   125.540     4.888 -1.636E-1
ts-Vha:  0.10070E+01 eV
ts-scf:   26   -39354.217307   -39354.217526   -39354.217526  0.000002 -4.553733  0.000923

SCF Convergence by DM+H criterion
max |DM_out - DM_in|         :     0.0000021780
max |H_out - H_in|      (eV) :     0.0009234590
SCF cycle converged after 26 iterations

Using DM_out to compute the final energy and forces
No. of atoms with KB's overlaping orbs in proc 0. Max # of overlaps:      82     104
ts-Vha:  0.10070E+01 eV

siesta: E_KS(eV) =           -39354.2175

siesta: E_KS - E_eggbox =    -39354.2175

siesta: Atomic forces (eV/Ang):
----------------------------------------
   Tot  -35.105115   38.069900  -14.846681
----------------------------------------
   Max    7.742289
   Res    1.796695    sqrt( Sum f_i^2 / 3N )
----------------------------------------
   Max    7.742289    constrained

Stress-tensor-Voigt (kbar):      363.94      367.38      369.77       -9.23        4.55        3.62
(Free)E + p*V (eV/cell)   -40611.3497
Target enthalpy (eV/cell)   -39354.2175

siesta: Program's energy decomposition (eV):
siesta: Ebs     =    -10902.837520
siesta: Eions   =     55703.243667
siesta: Ena     =     12138.519450
siesta: Ekin    =     18637.775085
siesta: Enl     =      -855.112823
siesta: Eso     =         0.000000
siesta: Eldau   =         0.000000
siesta: DEna    =       501.512243
siesta: DUscf   =        60.072560
siesta: DUext   =         0.000000
siesta: Enegf   =         0.000000
siesta: Exc     =    -14133.740374
siesta: eta*DQ  =         0.000000
siesta: Emadel  =         0.000000
siesta: Emeta   =         0.000000
siesta: Emolmec =         0.000000
siesta: Ekinion =         0.000000
siesta: Eharris =    -39354.217307
siesta: Etot    =    -39354.217526
siesta: FreeEng =    -39354.217526

siesta: Final energy (eV):
siesta:  Band Struct. =  -10902.837520
siesta:       Kinetic =   18637.775085
siesta:       Hartree =  737198.596630
siesta:       Eldau   =       0.000000
siesta:       Eso     =       0.000000
siesta:    Ext. field =       0.000000
siesta:       Enegf   =       0.000000
siesta:   Exch.-corr. =  -14133.740374
siesta:  Ion-electron =-1491449.443996
siesta:       Ion-ion =  710392.595129
siesta:       Ekinion =       0.000000
siesta:         Total =  -39354.217526
siesta:         Fermi =      -4.553733

siesta: Atomic forces (eV/Ang):
siesta:      1    0.005219    0.043879    4.484262
siesta:      2    0.005233    0.043879    4.484263
siesta:      3    0.005230    0.043876    4.484261
siesta:      4    0.005216    0.043876    4.484263
siesta:      5    0.007378   -0.009990   -0.424533
siesta:      6    0.007378   -0.009995   -0.424535
siesta:      7    0.007381   -0.009996   -0.424531
siesta:      8    0.007381   -0.009990   -0.424526
siesta:      9    0.003156   -0.014511    0.241920
siesta:     10    0.003156   -0.014523    0.241917
siesta:     11    0.003159   -0.014549    0.241916
siesta:     12    0.003159   -0.014547    0.241921
siesta:     13   -0.003118   -0.027946   -0.122609
siesta:     14   -0.003103   -0.027959   -0.122609
siesta:     15   -0.003101   -0.027952   -0.122614
siesta:     16   -0.003116   -0.027950   -0.122612
siesta:     17    0.005825   -0.011680    0.037901
siesta:     18    0.005844   -0.011673    0.037886
siesta:     19    0.005780   -0.011648    0.037910
siesta:     20    0.005760   -0.011653    0.037902
siesta:     21    0.002632   -0.020969    0.041271
siesta:     22    0.002612   -0.020978    0.041257
siesta:     23    0.002718   -0.020986    0.041352
siesta:     24    0.002739   -0.020982    0.041333
siesta:     25    0.005964   -0.009595    0.011610
siesta:     26    0.006529   -0.009710    0.012940
siesta:     27    0.006583   -0.010147    0.012544
siesta:     28    0.006018   -0.010242    0.011953
siesta:     29    0.011013   -0.003951   -0.117813
siesta:     30    0.010514   -0.006361   -0.119179
siesta:     31    0.010457   -0.003802   -0.117844
siesta:     32    0.010957   -0.006195   -0.119406
siesta:     33    0.008916   -0.021347    0.169011
siesta:     34    0.008186   -0.024310    0.166429
siesta:     35    0.006938   -0.020975    0.168634
siesta:     36    0.007668   -0.023947    0.167435
siesta:     37    0.010699   -0.014488   -0.004746
siesta:     38    0.010762   -0.014199   -0.004699
siesta:     39    0.013939   -0.015935   -0.002885
siesta:     40    0.013877   -0.015633   -0.002795
siesta:     41    0.004924   -0.007686    0.031140
siesta:     42    0.004898   -0.007945    0.031393
siesta:     43    0.003160   -0.022493    0.039732
siesta:     44    0.003181   -0.022701    0.039929
siesta:     45    0.031755    0.017744    0.158915
siesta:     46    0.031752    0.017884    0.158912
siesta:     47    0.053974    0.002304    0.161292
siesta:     48    0.053994    0.002440    0.161273
siesta:     49   -0.005809    0.033423    0.030861
siesta:     50   -0.005814    0.033488    0.030816
siesta:     51   -0.031029    0.027427    0.016697
siesta:     52   -0.031024    0.027494    0.016634
siesta:     53    0.036495   -0.069719    0.044670
siesta:     54    0.036478   -0.069782    0.044667
siesta:     55    0.023090   -0.037440   -0.051262
siesta:     56    0.023108   -0.037475   -0.051261
siesta:     57   -0.046969    0.010019    0.043472
siesta:     58   -0.046948    0.010028    0.043459
siesta:     59    0.000339    0.073931   -0.009122
siesta:     60    0.000349    0.073968   -0.009132
siesta:     61    0.011733   -0.038589    0.030849
siesta:     62    0.011704   -0.038594    0.030858
siesta:     63    0.050233   -0.060823   -0.053261
siesta:     64    0.050233   -0.060826   -0.053259
siesta:     65    0.185880    0.078391    0.002060
siesta:     66    0.185887    0.078394    0.002065
siesta:     67   -0.234925    0.024382   -0.021775
siesta:     68   -0.234889    0.024381   -0.021767
siesta:     69    0.045603   -0.134409    0.438729
siesta:     70    0.045578   -0.134411    0.438728
siesta:     71   -0.000865    0.027893   -0.331035
siesta:     72   -0.000887    0.027920   -0.331040
siesta:     73   -0.167298   -0.085763   -0.051071
siesta:     74   -0.167295   -0.085773   -0.051075
siesta:     75    0.131863    0.194588   -0.243986
siesta:     76    0.131871    0.194610   -0.243982
siesta:     77   -0.038094   -0.016688   -1.797590
siesta:     78   -0.038111   -0.016687   -1.797586
siesta:     79    0.078787   -0.110758   -2.017537
siesta:     80    0.078791   -0.110742   -2.017531
siesta:     81   -1.716439   -0.180976    6.716102
siesta:     82   -1.716426   -0.180880    6.716127
siesta:     83    1.989354    0.538876    6.573069
siesta:     84    1.989331    0.538912    6.573076
siesta:     85   -4.331018   -4.029987   -0.322425
siesta:     86   -4.330875   -4.030007   -0.322416
siesta:     87    4.893446   -3.861311   -0.931471
siesta:     88    4.893247   -3.861326   -0.931489
siesta:     89    2.190818    2.830580   -7.690292
siesta:     90    2.190720    2.830596   -7.690301
siesta:     91   -0.443851    0.230663   -0.122961
siesta:     92   -0.443842    0.230736   -0.122953
siesta:     93   -6.303268    1.958803   -2.431355
siesta:     94   -6.303262    1.959049   -2.431390
siesta:     95   -0.797078    3.871908    5.431130
siesta:     96   -0.797127    3.871899    5.431112
siesta:     97   -2.517975    5.541419    7.742289
siesta:     98   -2.518169    5.541401    7.742287
siesta:     99    0.229354    0.038362   -0.054312
siesta:    100    0.229370    0.038359   -0.054311
siesta:    101    0.077585   -0.212469    0.005307
siesta:    102    0.077605   -0.212456    0.005305
siesta:    103   -1.812450    5.278263   -6.880910
siesta:    104   -1.812687    5.278203   -6.880906
siesta:    105    0.189810    0.143903   -5.501489
siesta:    106    0.189816    0.144050   -5.501484
siesta:    107   -2.681912   -0.604040   -0.248214
siesta:    108   -2.681915   -0.603857   -0.248207
siesta:    109   -0.432789    0.486915   -0.043861
siesta:    110   -0.432807    0.486854   -0.043861
siesta:    111   -5.872060    0.136508   -1.349182
siesta:    112   -5.872112    0.136514   -1.349192
siesta:    113    2.854867    2.049880   -2.187820
siesta:    114    2.855056    2.049858   -2.187828
siesta:    115   -5.547314    0.092808    4.184584
siesta:    116   -5.547303    0.093066    4.184585
siesta:    117    0.151429   -0.052960   -0.057752
siesta:    118    0.151476   -0.052885   -0.057751
siesta:    119   -0.019974   -0.292935   -0.043068
siesta:    120   -0.020033   -0.292939   -0.043052
siesta:    121   -1.702333    5.484805    0.978605
siesta:    122   -1.702329    5.484716    0.978619
siesta:    123   -2.641538    1.287072   -3.702209
siesta:    124   -2.641553    1.287081   -3.702210
siesta:    125    0.140749    2.180507   -1.854314
siesta:    126    0.140934    2.180516   -1.854333
siesta:    127   -0.335015    0.594325    0.149729
siesta:    128   -0.335029    0.594252    0.149704
siesta:    129   -2.442653   -2.908807    6.044500
siesta:    130   -2.442653   -2.908811    6.044495
siesta:    131    5.287147   -2.939963   -3.271925
siesta:    132    5.287147   -2.939729   -3.271903
siesta:    133    3.736727    3.026467    4.748837
siesta:    134    3.736726    3.026490    4.748833
siesta:    135   -0.281101   -2.440341   -6.482414
siesta:    136   -0.281108   -2.440349   -6.482409
siesta:    137    0.043514    1.721937   -6.716070
siesta:    138    0.043505    1.721965   -6.716067
siesta:    139    0.193065   -0.068368    1.950649
siesta:    140    0.193087   -0.068354    1.950647
siesta:    141   -0.072761   -0.024594    1.873431
siesta:    142   -0.072767   -0.024593    1.873428
siesta:    143   -0.145527   -0.038118    0.192766
siesta:    144   -0.145539   -0.038130    0.192772
siesta:    145    0.138170    0.082664    0.095345
siesta:    146    0.138181    0.082712    0.095309
siesta:    147    0.016422   -0.008838    0.304838
siesta:    148    0.016441   -0.008831    0.304842
siesta:    149    0.066954   -0.081992   -0.402787
siesta:    150    0.066950   -0.081997   -0.402784
siesta:    151   -0.001538    0.222122    0.024217
siesta:    152   -0.001533    0.222103    0.024206
siesta:    153   -0.037619   -0.188323   -0.060979
siesta:    154   -0.037593   -0.188326   -0.060972
siesta:    155    0.066909   -0.055276    0.012939
siesta:    156    0.066886   -0.055290    0.012936
siesta:    157    0.023791   -0.034843    0.001299
siesta:    158    0.023784   -0.034822    0.001295
siesta:    159   -0.049794    0.006849   -0.004787
siesta:    160   -0.049746    0.006837   -0.004801
siesta:    161    0.005003    0.038283   -0.042898
siesta:    162    0.004983    0.038246   -0.042888
siesta:    163    0.024675   -0.041612   -0.012158
siesta:    164    0.024693   -0.041611   -0.012163
siesta:    165    0.044718   -0.063036   -0.081251
siesta:    166    0.044668   -0.063020   -0.081256
siesta:    167   -0.045171   -0.032101   -0.172353
siesta:    168   -0.045222   -0.032086   -0.172302
siesta:    169   -0.044777   -0.052345   -0.193799
siesta:    170   -0.044728   -0.052347   -0.193835
siesta:    171    0.007121   -0.005109   -0.015836
siesta:    172    0.007284   -0.005108   -0.015850
siesta:    173    0.017232   -0.012311   -0.013496
siesta:    174    0.017070   -0.012294   -0.013486
siesta:    175    0.006572   -0.010067   -0.001715
siesta:    176    0.006377   -0.010016   -0.001515
siesta:    177   -0.007150   -0.009838   -0.000533
siesta:    178   -0.006957   -0.009799   -0.000737
siesta:    179    0.009526   -0.007230    0.009126
siesta:    180    0.009823   -0.007160    0.009170
siesta:    181    0.009218   -0.007922    0.007470
siesta:    182    0.008922   -0.007836    0.007391
siesta:    183   -0.001500   -0.025182   -0.157629
siesta:    184    0.001483   -0.025926   -0.156434
siesta:    185    0.001638   -0.026328   -0.155706
siesta:    186   -0.001349   -0.027058   -0.158301
siesta:    187    0.011463   -0.013226    0.118862
siesta:    188    0.009076   -0.013734    0.117499
siesta:    189    0.009035   -0.013507    0.117453
siesta:    190    0.011423   -0.014002    0.119027
siesta:    191    0.006247   -0.011784   -0.003359
siesta:    192    0.006164   -0.012327   -0.003954
siesta:    193    0.005676   -0.011753   -0.002942
siesta:    194    0.005759   -0.012312   -0.004271
siesta:    195    0.001756   -0.021619   -0.045712
siesta:    196    0.001754   -0.021631   -0.045733
siesta:    197    0.001725   -0.021661   -0.045814
siesta:    198    0.001727   -0.021660   -0.045784
siesta:    199    0.007556   -0.009272   -0.044759
siesta:    200    0.007555   -0.009268   -0.044764
siesta:    201    0.007566   -0.009347   -0.044752
siesta:    202    0.007567   -0.009327   -0.044765
siesta:    203    0.002357   -0.013444    0.122175
siesta:    204    0.002375   -0.013445    0.122179
siesta:    205    0.002371   -0.013474    0.122178
siesta:    206    0.002353   -0.013459    0.122180
siesta:    207    0.007898   -0.008021   -0.246268
siesta:    208    0.007909   -0.007999   -0.246265
siesta:    209    0.007886   -0.008013   -0.246268
siesta:    210    0.007875   -0.008005   -0.246266
siesta:    211    0.009864   -0.000977    0.425256
siesta:    212    0.009864   -0.000973    0.425250
siesta:    213    0.009863   -0.000984    0.425242
siesta:    214    0.009863   -0.000969    0.425245
siesta:    215   -0.012247   -0.025690   -4.482651
siesta:    216   -0.012247   -0.025688   -4.482651
siesta:    217   -0.012248   -0.025705   -4.482646
siesta:    218   -0.012248   -0.025693   -4.482653
siesta: ----------------------------------------
siesta:    Tot  -35.105115   38.069900  -14.846681

siesta: Stress tensor (static) (eV/Ang**3):
siesta:     0.227150   -0.005786    0.002242
siesta:    -0.005763    0.229296    0.002788
siesta:     0.002258    0.002837    0.230790

siesta: Cell volume =       5487.786127 Ang**3

siesta: Pressure (static):
siesta:                Solid            Molecule  Units
siesta:          -0.00249495         -0.00159646  Ry/Bohr**3
siesta:          -0.22907820         -0.14658170  eV/Ang**3
siesta:        -367.02771331       -234.85230859  kBar
(Free)E+ p_basis*V_orbitals  =      -39299.028255
(Free)Eharris+ p_basis*V_orbitals  =      -39299.028036

siesta: Electric dipole (a.u.)  =    0.000000    0.000000    0.000000
siesta: Electric dipole (Debye) =    0.000000    0.000000    0.000000
>> End of run:  11-JAN-2023   3:20:15
Job completed
