240  
2    

1    
  0.0012460142618886   0.0000000000000000   0.0199611484754553
  -0.0048564208    0.0000129500   -0.9536435833
   0.0000015792    0.0000049500   -0.0060215833
   0.0000015792    0.0000059500   -0.0060495833
   0.0000015792    0.0000049500   -0.0060485833
   0.0000015792    0.0000059500   -0.0060215833
   0.0022975792   -0.0000000500    0.2859914167
   0.0000035792   -0.0000010500    0.0060174167
   0.0000045792   -0.0000010500    0.0060414167
   0.0000035792   -0.0000010500    0.0060424167
   0.0000045792   -0.0000020500    0.0060094167
   0.0002235792    0.0000039500    0.1597734167
  -0.0000044208    0.0000019500   -0.0060315833
  -0.0000044208    0.0000019500   -0.0060525833
  -0.0000034208    0.0000019500   -0.0060525833
  -0.0000044208    0.0000019500   -0.0060145833
  -0.0002694208   -0.0000020500   -0.0840915833
   0.0000085792   -0.0000010500    0.0060284167
   0.0000085792   -0.0000000500    0.0060464167
   0.0000095792   -0.0000000500    0.0060474167
   0.0000095792   -0.0000010500    0.0060044167
  -0.0000224208   -0.0000040500    0.0527424167
  -0.0000044208   -0.0000030500   -0.0060335833
  -0.0000054208   -0.0000040500   -0.0060495833
  -0.0000054208   -0.0000040500   -0.0060495833
  -0.0000054208   -0.0000030500   -0.0060005833
   0.0000225792   -0.0000010500   -0.0332115833
   0.0000005792   -0.0000010500    0.0060294167
  -0.0000004208   -0.0000010500    0.0060454167
  -0.0000004208   -0.0000010500    0.0060454167
  -0.0000004208   -0.0000010500    0.0059894167
   0.0000065792    0.0000019500    0.0227974167
  -0.0000084208    0.0000019500   -0.0060375833
  -0.0000084208    0.0000019500   -0.0060495833
  -0.0000084208    0.0000019500   -0.0060485833
  -0.0000084208    0.0000019500   -0.0059855833
   0.0000065792   -0.0000000500   -0.0151405833
   0.0000045792   -0.0000010500    0.0060344167
   0.0000045792   -0.0000000500    0.0060444167
   0.0000045792   -0.0000010500    0.0060444167
   0.0000045792   -0.0000010500    0.0059714167
  -0.0000014208    0.0000019500    0.0104244167
  -0.0000044208    0.0000029500   -0.0060435833
  -0.0000034208    0.0000019500   -0.0060515833
  -0.0000034208    0.0000029500   -0.0060515833
  -0.0000044208    0.0000029500   -0.0059665833
   0.0000095792   -0.0000010500   -0.0066345833
   0.0000095792   -0.0000000500    0.0060384167
   0.0000095792   -0.0000000500    0.0060464167
   0.0000095792   -0.0000000500    0.0060474167
   0.0000095792   -0.0000000500    0.0059514167
  -0.0000044208   -0.0000040500    0.0041394167
  -0.0000054208   -0.0000030500   -0.0060425833
  -0.0000054208   -0.0000040500   -0.0060495833
  -0.0000054208   -0.0000040500   -0.0060495833
  -0.0000054208   -0.0000040500   -0.0059385833
  -0.0000004208   -0.0000020500   -0.0020285833
   0.0000005792   -0.0000010500    0.0060374167
  -0.0000004208   -0.0000010500    0.0060444167
  -0.0000004208   -0.0000010500    0.0060454167
   0.0000005792   -0.0000010500    0.0059184167
  -0.0000064208    0.0000019500    0.0005784167
  -0.0000084208    0.0000019500   -0.0060445833
  -0.0000084208    0.0000019500   -0.0060485833
  -0.0000084208    0.0000019500   -0.0060485833
  -0.0000084208    0.0000019500   -0.0059045833
   0.0000045792   -0.0000010500    0.0006924167
   0.0000045792   -0.0000000500    0.0060394167
   0.0000045792   -0.0000000500    0.0060444167
   0.0000045792   -0.0000010500    0.0060454167
   0.0000055792   -0.0000010500    0.0058764167
  -0.0000034208    0.0000029500   -0.0015875833
  -0.0000034208    0.0000019500   -0.0060485833
  -0.0000024208    0.0000019500   -0.0060515833
  -0.0000034208    0.0000019500   -0.0060515833
  -0.0000044208    0.0000029500   -0.0058615833
   0.0000095792   -0.0000010500    0.0023874167
   0.0000095792   -0.0000000500    0.0060434167
   0.0000095792   -0.0000000500    0.0060464167
   0.0000085792   -0.0000000500    0.0060474167
   0.0000105792   -0.0000000500    0.0058264167
  -0.0000034208   -0.0000030500   -0.0029665833
  -0.0000054208   -0.0000030500   -0.0060465833
  -0.0000054208   -0.0000040500   -0.0060495833
  -0.0000054208   -0.0000040500   -0.0060495833
  -0.0000044208   -0.0000030500   -0.0057955833
   0.0000005792   -0.0000010500    0.0034924167
   0.0000005792   -0.0000010500    0.0060414167
  -0.0000004208   -0.0000010500    0.0060444167
  -0.0000004208   -0.0000010500    0.0060454167
   0.0000015792   -0.0000000500    0.0057514167
  -0.0000064208    0.0000029500   -0.0038775833
  -0.0000084208    0.0000019500   -0.0060465833
  -0.0000084208    0.0000019500   -0.0060485833
  -0.0000084208    0.0000019500   -0.0060475833
  -0.0000074208    0.0000019500   -0.0057135833
   0.0000045792   -0.0000010500    0.0042314167
   0.0000045792   -0.0000010500    0.0060424167
   0.0000045792   -0.0000000500    0.0060444167
   0.0000045792   -0.0000010500    0.0060444167
   0.0000045792   -0.0000010500    0.0056534167
  -0.0000024208    0.0000039500   -0.0044995833
  -0.0000034208    0.0000019500   -0.0060515833
  -0.0000034208    0.0000019500   -0.0060515833
  -0.0000034208    0.0000019500   -0.0060505833
  -0.0000034208    0.0000019500   -0.0056055833
   0.0000095792   -0.0000000500    0.0047444167
   0.0000095792   -0.0000000500    0.0060454167
   0.0000095792   -0.0000000500    0.0060464167
   0.0000085792   -0.0000010500    0.0060464167
   0.0000095792   -0.0000010500    0.0055224167
  -0.0000054208   -0.0000030500   -0.0049255833
  -0.0000044208   -0.0000040500   -0.0060485833
  -0.0000054208   -0.0000030500   -0.0060495833
  -0.0000054208   -0.0000040500   -0.0060485833
  -0.0000034208   -0.0000050500   -0.0054455833
   0.0000025792   -0.0000020500    0.0050954167
   0.0000005792   -0.0000010500    0.0060434167
  -0.0000004208   -0.0000010500    0.0060454167
  -0.0000004208   -0.0000010500    0.0060454167
   0.0000015792   -0.0000010500    0.0053374167
  -0.0000064208    0.0000009500   -0.0052285833
  -0.0000084208    0.0000019500   -0.0060475833
  -0.0000084208    0.0000019500   -0.0060485833
  -0.0000084208    0.0000019500   -0.0060475833
  -0.0000074208    0.0000019500   -0.0052295833
   0.0000055792   -0.0000020500    0.0053484167
   0.0000045792   -0.0000000500    0.0060434167
   0.0000045792   -0.0000000500    0.0060444167
   0.0000045792   -0.0000000500    0.0060444167
   0.0000055792   -0.0000010500    0.0050814167
  -0.0000034208    0.0000029500   -0.0054475833
  -0.0000034208    0.0000019500   -0.0060525833
  -0.0000034208    0.0000019500   -0.0060515833
  -0.0000034208    0.0000019500   -0.0060505833
  -0.0000024208    0.0000029500   -0.0049315833
   0.0000105792   -0.0000020500    0.0055304167
   0.0000085792   -0.0000000500    0.0060454167
   0.0000095792   -0.0000000500    0.0060464167
   0.0000085792   -0.0000010500    0.0060454167
   0.0000075792   -0.0000010500    0.0047224167
  -0.0000034208   -0.0000030500   -0.0055975833
  -0.0000054208   -0.0000040500   -0.0060495833
  -0.0000054208   -0.0000040500   -0.0060495833
  -0.0000054208   -0.0000040500   -0.0060465833
  -0.0000024208   -0.0000010500   -0.0044995833
   0.0000005792   -0.0000010500    0.0056584167
  -0.0000004208   -0.0000010500    0.0060444167
  -0.0000004208   -0.0000010500    0.0060454167
  -0.0000004208   -0.0000010500    0.0060434167
  -0.0000004208   -0.0000030500    0.0042044167
  -0.0000074208   -0.0000000500   -0.0057145833
  -0.0000084208    0.0000019500   -0.0060485833
  -0.0000084208    0.0000019500   -0.0060485833
  -0.0000084208    0.0000029500   -0.0060455833
  -0.0000054208    0.0000019500   -0.0038845833
   0.0000055792    0.0000009500    0.0057554167
   0.0000045792   -0.0000000500    0.0060444167
   0.0000045792   -0.0000000500    0.0060444167
   0.0000045792   -0.0000010500    0.0060424167
   0.0000055792   -0.0000000500    0.0034514167
  -0.0000034208    0.0000029500   -0.0058005833
  -0.0000034208    0.0000019500   -0.0060525833
  -0.0000034208    0.0000019500   -0.0060515833
  -0.0000034208    0.0000019500   -0.0060485833
  -0.0000024208    0.0000029500   -0.0029795833
   0.0000105792    0.0000009500    0.0058294167
   0.0000095792   -0.0000000500    0.0060464167
   0.0000085792   -0.0000000500    0.0060474167
   0.0000085792   -0.0000000500    0.0060434167
   0.0000095792   -0.0000010500    0.0023294167
  -0.0000054208   -0.0000050500   -0.0058585833
  -0.0000054208   -0.0000040500   -0.0060495833
  -0.0000054208   -0.0000040500   -0.0060495833
  -0.0000054208   -0.0000040500   -0.0060435833
  -0.0000044208   -0.0000030500   -0.0016035833
  -0.0000004208   -0.0000010500    0.0058804167
  -0.0000004208   -0.0000010500    0.0060444167
  -0.0000004208   -0.0000010500    0.0060454167
  -0.0000004208   -0.0000010500    0.0060404167
   0.0000005792   -0.0000010500    0.0005884167
  -0.0000074208    0.0000019500   -0.0059055833
  -0.0000084208    0.0000019500   -0.0060485833
  -0.0000084208    0.0000019500   -0.0060485833
  -0.0000084208    0.0000019500   -0.0060425833
  -0.0000074208    0.0000029500    0.0005514167
   0.0000045792   -0.0000000500    0.0059194167
   0.0000045792   -0.0000000500    0.0060444167
   0.0000045792   -0.0000000500    0.0060454167
   0.0000035792   -0.0000010500    0.0060394167
   0.0000025792   -0.0000020500   -0.0022015833
  -0.0000044208    0.0000029500   -0.0059425833
  -0.0000034208    0.0000019500   -0.0060525833
  -0.0000034208    0.0000019500   -0.0060515833
  -0.0000034208    0.0000019500   -0.0060435833
  -0.0000024208    0.0000029500    0.0040944167
   0.0000085792   -0.0000000500    0.0059524167
   0.0000095792   -0.0000000500    0.0060464167
   0.0000095792   -0.0000000500    0.0060474167
   0.0000095792   -0.0000000500    0.0060394167
   0.0000075792   -0.0000010500   -0.0069325833
  -0.0000054208   -0.0000030500   -0.0059665833
  -0.0000054208   -0.0000040500   -0.0060495833
  -0.0000044208   -0.0000040500   -0.0060495833
  -0.0000054208   -0.0000040500   -0.0060385833
  -0.0000044208   -0.0000030500    0.0103544167
   0.0000005792   -0.0000010500    0.0059724167
  -0.0000004208   -0.0000010500    0.0060444167
  -0.0000004208   -0.0000010500    0.0060454167
  -0.0000004208   -0.0000010500    0.0060344167
  -0.0000004208   -0.0000030500   -0.0157175833
  -0.0000084208    0.0000009500   -0.0059865833
  -0.0000084208    0.0000019500   -0.0060485833
  -0.0000084208    0.0000019500   -0.0060485833
  -0.0000084208    0.0000019500   -0.0060365833
   0.0000025792    0.0000009500    0.0226324167
   0.0000045792   -0.0000010500    0.0059884167
   0.0000045792   -0.0000000500    0.0060444167
   0.0000045792   -0.0000000500    0.0060454167
   0.0000045792   -0.0000010500    0.0060314167
   0.0000105792    0.0000009500   -0.0345315833
  -0.0000044208    0.0000019500   -0.0060045833
  -0.0000034208    0.0000019500   -0.0060515833
  -0.0000034208    0.0000019500   -0.0060515833
  -0.0000034208    0.0000019500   -0.0060345833
  -0.0000204208    0.0000019500    0.0523334167
   0.0000085792   -0.0000010500    0.0060034167
   0.0000085792   -0.0000010500    0.0060474167
   0.0000095792   -0.0000000500    0.0060474167
   0.0000085792   -0.0000010500    0.0060284167
  -0.0001754208   -0.0000020500   -0.0880775833
  -0.0000054208   -0.0000030500   -0.0060135833
  -0.0000054208   -0.0000040500   -0.0060485833
  -0.0000054208   -0.0000030500   -0.0060495833
  -0.0000054208   -0.0000030500   -0.0060265833
   0.0002885792   -0.0000030500    0.1576094167
   0.0000075792    0.0000069500    0.0060164167
   0.0000075792    0.0000079500    0.0060494167
   0.0000075792    0.0000069500    0.0060494167
   0.0000075792    0.0000069500    0.0060244167
   0.0025115792    0.0000079500    0.4585234167

1    
 -0.0012460142618886   0.0000000000000000  -0.0199611484754553
   0.0047278458    0.0000109542    0.9712448750
   0.0000018458    0.0000059542   -0.0060981250
   0.0000008458    0.0000069542   -0.0060671250
   0.0000008458    0.0000069542   -0.0060671250
   0.0000018458    0.0000049542   -0.0060981250
  -0.0025771542   -0.0000040458   -0.2567991250
   0.0000028458   -0.0000010458    0.0060958750
   0.0000028458   -0.0000010458    0.0060698750
   0.0000028458   -0.0000010458    0.0060708750
   0.0000038458   -0.0000010458    0.0061048750
  -0.0002541542   -0.0000000458   -0.1675771250
  -0.0000031542    0.0000029542   -0.0060951250
  -0.0000031542    0.0000029542   -0.0060711250
  -0.0000041542    0.0000029542   -0.0060711250
  -0.0000041542    0.0000029542   -0.0061101250
   0.0002638458   -0.0000020458    0.0937608750
   0.0000088458   -0.0000000458    0.0060948750
   0.0000088458   -0.0000000458    0.0060748750
   0.0000088458   -0.0000010458    0.0060748750
   0.0000078458   -0.0000000458    0.0061198750
   0.0000388458   -0.0000040458   -0.0632841250
  -0.0000041542   -0.0000040458   -0.0060861250
  -0.0000041542   -0.0000040458   -0.0060671250
  -0.0000041542   -0.0000040458   -0.0060671250
  -0.0000051542   -0.0000040458   -0.0061181250
  -0.0000201542   -0.0000010458    0.0442128750
  -0.0000001542   -0.0000020458    0.0060888750
  -0.0000001542   -0.0000020458    0.0060718750
  -0.0000001542   -0.0000020458    0.0060728750
  -0.0000001542   -0.0000020458    0.0061308750
  -0.0000021542    0.0000009542   -0.0340531250
  -0.0000071542    0.0000019542   -0.0060831250
  -0.0000071542    0.0000019542   -0.0060681250
  -0.0000071542    0.0000019542   -0.0060681250
  -0.0000061542    0.0000019542   -0.0061331250
   0.0000038458   -0.0000010458    0.0265978750
   0.0000028458   -0.0000010458    0.0060848750
   0.0000038458   -0.0000010458    0.0060718750
   0.0000038458   -0.0000010458    0.0060728750
   0.0000028458   -0.0000010458    0.0061468750
  -0.0000041542    0.0000019542   -0.0220211250
  -0.0000041542    0.0000029542   -0.0060831250
  -0.0000031542    0.0000029542   -0.0060711250
  -0.0000041542    0.0000029542   -0.0060711250
  -0.0000041542    0.0000019542   -0.0061551250
   0.0000048458   -0.0000020458    0.0183388750
   0.0000088458   -0.0000010458    0.0060848750
   0.0000088458   -0.0000000458    0.0060748750
   0.0000088458   -0.0000010458    0.0060758750
   0.0000078458   -0.0000000458    0.0061698750
  -0.0000041542   -0.0000010458   -0.0159091250
  -0.0000041542   -0.0000040458   -0.0060771250
  -0.0000041542   -0.0000040458   -0.0060661250
  -0.0000041542   -0.0000040458   -0.0060671250
  -0.0000041542   -0.0000040458   -0.0061751250
   0.0000008458   -0.0000010458    0.0138658750
  -0.0000011542   -0.0000020458    0.0060798750
  -0.0000001542   -0.0000020458    0.0060718750
  -0.0000001542   -0.0000030458    0.0060738750
   0.0000008458   -0.0000010458    0.0061978750
  -0.0000081542    0.0000019542   -0.0124581250
  -0.0000061542    0.0000019542   -0.0060761250
  -0.0000071542    0.0000009542   -0.0060681250
  -0.0000071542    0.0000019542   -0.0060681250
  -0.0000071542    0.0000019542   -0.0062091250
   0.0000038458    0.0000009542    0.0112368750
   0.0000038458   -0.0000010458    0.0060778750
   0.0000038458   -0.0000010458    0.0060718750
   0.0000038458   -0.0000010458    0.0060738750
   0.0000038458   -0.0000000458    0.0062358750
  -0.0000051542    0.0000029542   -0.0103691250
  -0.0000041542    0.0000029542   -0.0060781250
  -0.0000031542    0.0000029542   -0.0060711250
  -0.0000031542    0.0000029542   -0.0060721250
  -0.0000041542    0.0000029542   -0.0062551250
   0.0000078458    0.0000009542    0.0095978750
   0.0000088458   -0.0000010458    0.0060798750
   0.0000088458   -0.0000000458    0.0060748750
   0.0000088458   -0.0000010458    0.0060758750
   0.0000088458   -0.0000000458    0.0062918750
  -0.0000061542   -0.0000040458   -0.0090321250
  -0.0000041542   -0.0000040458   -0.0060721250
  -0.0000041542   -0.0000040458   -0.0060661250
  -0.0000041542   -0.0000040458   -0.0060671250
  -0.0000031542   -0.0000030458   -0.0063131250
   0.0000008458    0.0000009542    0.0085278750
  -0.0000011542   -0.0000020458    0.0060758750
  -0.0000001542   -0.0000020458    0.0060718750
  -0.0000011542   -0.0000030458    0.0060738750
   0.0000018458   -0.0000010458    0.0063578750
  -0.0000071542    0.0000009542   -0.0081521250
  -0.0000071542    0.0000019542   -0.0060721250
  -0.0000071542    0.0000019542   -0.0060681250
  -0.0000071542    0.0000019542   -0.0060691250
  -0.0000071542    0.0000029542   -0.0063931250
   0.0000048458    0.0000009542    0.0078148750
   0.0000038458   -0.0000010458    0.0060748750
   0.0000038458   -0.0000010458    0.0060718750
   0.0000038458   -0.0000010458    0.0060738750
   0.0000028458   -0.0000010458    0.0064528750
  -0.0000041542    0.0000049542   -0.0075621250
  -0.0000031542    0.0000039542   -0.0060751250
  -0.0000041542    0.0000029542   -0.0060711250
  -0.0000031542    0.0000029542   -0.0060731250
  -0.0000041542    0.0000039542   -0.0065061250
   0.0000088458   -0.0000010458    0.0073288750
   0.0000088458   -0.0000000458    0.0060778750
   0.0000098458   -0.0000000458    0.0060738750
   0.0000088458   -0.0000000458    0.0060768750
   0.0000078458   -0.0000000458    0.0065848750
  -0.0000051542   -0.0000030458   -0.0071471250
  -0.0000041542   -0.0000040458   -0.0060701250
  -0.0000041542   -0.0000040458   -0.0060661250
  -0.0000041542   -0.0000040458   -0.0060681250
  -0.0000041542   -0.0000030458   -0.0066531250
   0.0000008458   -0.0000020458    0.0069858750
  -0.0000011542   -0.0000020458    0.0060738750
  -0.0000001542   -0.0000020458    0.0060718750
  -0.0000001542   -0.0000030458    0.0060748750
  -0.0000001542   -0.0000010458    0.0067598750
  -0.0000081542    0.0000019542   -0.0068591250
  -0.0000071542    0.0000019542   -0.0060711250
  -0.0000071542    0.0000019542   -0.0060681250
  -0.0000071542    0.0000019542   -0.0060701250
  -0.0000081542    0.0000019542   -0.0068621250
   0.0000038458   -0.0000020458    0.0067428750
   0.0000028458   -0.0000010458    0.0060728750
   0.0000038458   -0.0000010458    0.0060728750
   0.0000038458   -0.0000010458    0.0060748750
   0.0000048458   -0.0000000458    0.0070038750
  -0.0000041542    0.0000039542   -0.0066551250
  -0.0000031542    0.0000039542   -0.0060741250
  -0.0000041542    0.0000029542   -0.0060711250
  -0.0000041542    0.0000029542   -0.0060741250
  -0.0000041542    0.0000029542   -0.0071531250
   0.0000078458   -0.0000000458    0.0065728750
   0.0000088458   -0.0000000458    0.0060768750
   0.0000098458   -0.0000000458    0.0060748750
   0.0000088458   -0.0000000458    0.0060788750
   0.0000088458   -0.0000000458    0.0073578750
  -0.0000031542   -0.0000020458   -0.0065031250
  -0.0000041542   -0.0000040458   -0.0060681250
  -0.0000041542   -0.0000040458   -0.0060661250
  -0.0000041542   -0.0000040458   -0.0060701250
  -0.0000061542   -0.0000030458   -0.0075631250
   0.0000008458   -0.0000010458    0.0064438750
  -0.0000011542   -0.0000020458    0.0060728750
  -0.0000001542   -0.0000020458    0.0060718750
  -0.0000011542   -0.0000020458    0.0060758750
   0.0000008458    0.0000009542    0.0078548750
  -0.0000071542    0.0000019542   -0.0063931250
  -0.0000071542    0.0000019542   -0.0060691250
  -0.0000071542    0.0000019542   -0.0060681250
  -0.0000071542    0.0000019542   -0.0060721250
  -0.0000071542    0.0000019542   -0.0081621250
   0.0000028458   -0.0000000458    0.0063508750
   0.0000028458   -0.0000010458    0.0060728750
   0.0000038458   -0.0000010458    0.0060718750
   0.0000038458   -0.0000010458    0.0060768750
   0.0000058458   -0.0000000458    0.0085848750
  -0.0000031542    0.0000029542   -0.0063181250
  -0.0000031542    0.0000029542   -0.0060721250
  -0.0000041542    0.0000029542   -0.0060711250
  -0.0000041542    0.0000039542   -0.0060761250
  -0.0000051542    0.0000029542   -0.0090431250
   0.0000078458   -0.0000000458    0.0062858750
   0.0000088458   -0.0000010458    0.0060758750
   0.0000098458   -0.0000000458    0.0060748750
   0.0000088458   -0.0000000458    0.0060808750
   0.0000088458   -0.0000000458    0.0096838750
  -0.0000041542   -0.0000030458   -0.0062541250
  -0.0000041542   -0.0000040458   -0.0060681250
  -0.0000041542   -0.0000040458   -0.0060661250
  -0.0000041542   -0.0000040458   -0.0060731250
  -0.0000041542   -0.0000010458   -0.0103781250
  -0.0000001542   -0.0000010458    0.0062328750
  -0.0000001542   -0.0000020458    0.0060728750
  -0.0000001542   -0.0000030458    0.0060718750
  -0.0000011542   -0.0000020458    0.0060798750
  -0.0000011542   -0.0000000458    0.0113708750
  -0.0000061542    0.0000019542   -0.0062101250
  -0.0000071542    0.0000019542   -0.0060681250
  -0.0000071542    0.0000019542   -0.0060681250
  -0.0000071542    0.0000019542   -0.0060761250
  -0.0000061542    0.0000029542   -0.0124831250
   0.0000028458   -0.0000010458    0.0061948750
   0.0000028458   -0.0000010458    0.0060718750
   0.0000038458   -0.0000010458    0.0060728750
   0.0000038458   -0.0000010458    0.0060808750
   0.0000028458   -0.0000000458    0.0140958750
  -0.0000041542    0.0000029542   -0.0061801250
  -0.0000041542    0.0000029542   -0.0060721250
  -0.0000041542    0.0000029542   -0.0060711250
  -0.0000041542    0.0000039542   -0.0060801250
  -0.0000051542    0.0000039542   -0.0159611250
   0.0000078458   -0.0000000458    0.0061678750
   0.0000088458   -0.0000000458    0.0060748750
   0.0000088458   -0.0000000458    0.0060748750
   0.0000088458   -0.0000000458    0.0060858750
   0.0000088458   -0.0000000458    0.0187368750
  -0.0000041542   -0.0000040458   -0.0061511250
  -0.0000041542   -0.0000040458   -0.0060671250
  -0.0000041542   -0.0000040458   -0.0060661250
  -0.0000041542   -0.0000040458   -0.0060791250
  -0.0000071542   -0.0000030458   -0.0220901250
  -0.0000001542   -0.0000020458    0.0061448750
  -0.0000001542   -0.0000020458    0.0060718750
  -0.0000001542   -0.0000030458    0.0060718750
  -0.0000011542   -0.0000020458    0.0060868750
   0.0000038458   -0.0000020458    0.0273748750
  -0.0000071542    0.0000019542   -0.0061331250
  -0.0000071542    0.0000019542   -0.0060681250
  -0.0000071542    0.0000019542   -0.0060681250
  -0.0000081542    0.0000009542   -0.0060841250
   0.0000008458    0.0000019542   -0.0342051250
   0.0000048458   -0.0000010458    0.0061278750
   0.0000038458   -0.0000010458    0.0060718750
   0.0000038458   -0.0000010458    0.0060728750
   0.0000038458   -0.0000010458    0.0060888750
  -0.0000081542    0.0000009542    0.0460038750
  -0.0000031542    0.0000029542   -0.0061221250
  -0.0000031542    0.0000029542   -0.0060721250
  -0.0000041542    0.0000029542   -0.0060711250
  -0.0000041542    0.0000029542   -0.0060911250
   0.0000308458    0.0000029542   -0.0636941250
   0.0000088458   -0.0000010458    0.0061178750
   0.0000088458   -0.0000010458    0.0060748750
   0.0000088458   -0.0000000458    0.0060748750
   0.0000088458   -0.0000000458    0.0060968750
   0.0001618458   -0.0000000458    0.0995508750
  -0.0000051542   -0.0000040458   -0.0061061250
  -0.0000051542   -0.0000030458   -0.0060671250
  -0.0000051542   -0.0000040458   -0.0060671250
  -0.0000051542   -0.0000040458   -0.0060911250
  -0.0001911542   -0.0000020458   -0.1696601250
   0.0000058458    0.0000069542    0.0061088750
   0.0000058458    0.0000069542    0.0060758750
   0.0000058458    0.0000069542    0.0060768750
   0.0000058458    0.0000069542    0.0061038750
  -0.0021111542    0.0000029542   -0.4958671250