Siesta Version:                                        siesta-3.2
Architecture  : x86_64-unknown-linux-gnu--unknown
Compiler flags: mpiifort -g -O2 -xSSE4.2 -fPIC -fp-model source -shared-intel
PARALLEL version

* Running on    8 nodes in parallel
>> Start of run:  29-APR-2019  10:24:33

                           ***********************       
                           *  WELCOME TO SIESTA  *       
                           ***********************       

reinit: Reading from standard input
************************** Dump of input data file ****************************
#(1) General system descriptors
SystemName       siesta           # Descriptive name of the system
SystemLabel      siesta           # Short name for naming files
%include STRUCT.fdf
%include KPT.fdf
%include BASIS.fdf
#(4) DFT, Grid, SCF
XC.functional         GGA            # LDA or GGA (default = LDA)
XC.authors            PBE            # CA (Ceperley-Aldr) = PZ
MeshCutoff            100.000000    Ry      # Default: 50.0 Ry ~ 0.444 Bohr
                                    #         100.0 Ry ~ 0.314 Bohr
MaxSCFIterations      300           # Default: 50
DM.MixingWeight       0.10000          # Default: 0.25
DM.NumberPulay        3             # Default: 0
DM.PulayOnFile        F             # SystemLabel.P1, SystemLabel.P2
DM.Tolerance          1.d-4         # Default: 1.d-4
DM.UseSaveDM          .true.        # because of the bug
SCFMustConverge       .true.
NeglNonOverlapInt     F             # Default: F
#(5) Eigenvalue problem: order-N or diagonalization
SolutionMethod        Diagon
ElectronicTemperature 300.0 K       # Default: 300.0 K
Diag.ParallelOverK    true
************************** End of input data file *****************************

reinit: -----------------------------------------------------------------------
reinit: System Name: siesta
reinit: -----------------------------------------------------------------------
reinit: System Label: siesta                                                      
reinit: -----------------------------------------------------------------------

initatom: Reading input for the pseudopotentials and atomic orbitals ----------
 Species number:            1  Label: C Atomic number:           6
Ground state valence configuration:   2s02  2p02
Reading pseudopotential information in formatted form from C.psf

Valence configuration for pseudopotential generation:
2s( 2.00) rc: 1.54
2p( 2.00) rc: 1.54
3d( 0.00) rc: 1.54
4f( 0.00) rc: 1.54
For C, standard SIESTA heuristics set lmxkb to 3
 (one more than the basis l, including polarization orbitals).
Use PS.lmax or PS.KBprojectors blocks to override.

<basis_specs>
===============================================================================
C                    Z=   6    Mass=  12.010        Charge= 0.17977+309
Lmxo=1 Lmxkb= 3    BasisType=split      Semic=F
L=0  Nsemic=0  Cnfigmx=2
          n=1  nzeta=2  polorb=0
            splnorm:   0.15000    
               vcte:    0.0000    
               rinn:    0.0000    
                rcs:    0.0000      0.0000    
            lambdas:    1.0000      1.0000    
L=1  Nsemic=0  Cnfigmx=2
          n=1  nzeta=2  polorb=1
            splnorm:   0.15000    
               vcte:    0.0000    
               rinn:    0.0000    
                rcs:    0.0000      0.0000    
            lambdas:    1.0000      1.0000    
-------------------------------------------------------------------------------
L=0  Nkbl=1  erefs: 0.17977+309
L=1  Nkbl=1  erefs: 0.17977+309
L=2  Nkbl=1  erefs: 0.17977+309
L=3  Nkbl=1  erefs: 0.17977+309
===============================================================================
</basis_specs>

atom: Called for C                     (Z =   6)

read_vps: Pseudopotential generation method:
read_vps: ATM3      Troullier-Martins                       
Total valence charge:    4.00000

read_vps: Pseudopotential includes a core correction:
read_vps: Pseudo-core for xc-correction

xc_check: Exchange-correlation functional:
xc_check: GGA Perdew, Burke & Ernzerhof 1996
V l=0 = -2*Zval/r beyond r=  1.5227
V l=1 = -2*Zval/r beyond r=  1.5227
V l=2 = -2*Zval/r beyond r=  1.5227
V l=3 = -2*Zval/r beyond r=  1.5038
All V_l potentials equal beyond r=  1.5227
This should be close to max(r_c) in ps generation
All pots = -2*Zval/r beyond r=  1.5227

VLOCAL1: 99.0% of the norm of Vloc inside     18.722 Ry
VLOCAL1: 99.9% of the norm of Vloc inside     42.668 Ry
atom: Maximum radius for 4*pi*r*r*local-pseudopot. charge    1.83678
atom: Maximum radius for r*vlocal+2*Zval:    1.58088
GHOST: No ghost state for L =  0
GHOST: No ghost state for L =  1
GHOST: No ghost state for L =  2
GHOST: No ghost state for L =  3

KBgen: Kleinman-Bylander projectors: 
   l= 0   rc=  1.704034   el= -1.009801   Ekb=  5.335044   kbcos=  0.316824
   l= 1   rc=  1.704034   el= -0.388707   Ekb= -3.785862   kbcos= -0.366464
   l= 2   rc=  1.791422   el=  0.001971   Ekb= -0.970471   kbcos= -0.009212
   l= 3   rc=  1.859892   el=  0.003065   Ekb= -0.399525   kbcos= -0.001223

KBgen: Total number of  Kleinman-Bylander projectors:   16
atom: -------------------------------------------------------------------------

atom: SANKEY-TYPE ORBITALS:
atom: Selected multiple-zeta basis: split     

SPLIT: Orbitals with angular momentum L= 0

SPLIT: Basis orbitals for state 2s

SPLIT: PAO cut-off radius determined from an
SPLIT: energy shift=  0.007350 Ry

   izeta = 1
                 lambda =    1.000000
                     rc =    4.632753
                 energy =   -1.002270
                kinetic =    0.855760
    potential(screened) =   -1.858031
       potential(ionic) =   -5.417575

   izeta = 2
                 rmatch =    3.431921
              splitnorm =    0.150000
                 energy =   -0.867111
                kinetic =    1.300804
    potential(screened) =   -2.167915
       potential(ionic) =   -5.962684

SPLIT: Orbitals with angular momentum L= 1

SPLIT: Basis orbitals for state 2p

SPLIT: PAO cut-off radius determined from an
SPLIT: energy shift=  0.007350 Ry

   izeta = 1
                 lambda =    1.000000
                     rc =    5.658549
                 energy =   -0.381140
                kinetic =    2.399701
    potential(screened) =   -2.780841
       potential(ionic) =   -6.206085

   izeta = 2
                 rmatch =    3.653288
              splitnorm =    0.150000
                 energy =   -0.249149
                kinetic =    3.542762
    potential(screened) =   -3.791911
       potential(ionic) =   -7.581078

POLgen: Perturbative polarization orbital with L=  2

POLgen: Polarization orbital for state 2p

   izeta = 1
                     rc =    5.658549
                 energy =    1.109913
                kinetic =    2.304789
    potential(screened) =   -1.194876
       potential(ionic) =   -4.013592
atom: Total number of Sankey-type orbitals: 13

atm_pop: Valence configuration (for local Pseudopot. screening):
 2s( 2.00)                                                            
 2p( 2.00)                                                            
Vna: chval, zval:    4.00000   4.00000

Vna:  Cut-off radius for the neutral-atom potential:   5.658549
comcore: Pseudo-core radius Rcore=  1.791422

atom: _________________________________________________________________________

prinput: Basis input ----------------------------------------------------------

PAO.BasisType split     

%block ChemicalSpeciesLabel
    1    6 C                       # Species index, atomic number, species label
%endblock ChemicalSpeciesLabel

%block PAO.Basis                 # Define Basis set
C                     2                    # Species label, number of l-shells
 n=2   0   2                         # n, l, Nzeta 
   4.633      3.432   
   1.000      1.000   
 n=2   1   2 P   1                   # n, l, Nzeta, Polarization, NzetaPol
   5.659      3.653   
   1.000      1.000   
%endblock PAO.Basis

prinput: ----------------------------------------------------------------------

coor:   Atomic-coordinates input format  =     Cartesian coordinates
coor:                                          (in Angstroms)

siesta: Atomic coordinates (Bohr) and species
siesta:     18.89607  18.89726 605.44963  1        1
siesta:     18.89725  18.89726 121.09370  1        2
siesta:     18.89725  18.89726 242.18740  1        3
siesta:     18.89725  18.89726 363.28109  1        4
siesta:     18.89725  18.89726 484.37479  1        5
siesta:     18.89725  18.89726   2.58953  1        6
siesta:     18.89725  18.89726 123.68323  1        7
siesta:     18.89725  18.89726 244.77693  1        8
siesta:     18.89725  18.89726 365.87062  1        9
siesta:     18.89725  18.89726 486.96432  1       10
siesta:     18.89725  18.89726   5.04557  1       11
siesta:     18.89725  18.89726 126.13927  1       12
siesta:     18.89725  18.89726 247.23297  1       13
siesta:     18.89725  18.89726 368.32667  1       14
siesta:     18.89725  18.89726 489.42036  1       15
siesta:     18.89725  18.89726   7.63510  1       16
siesta:     18.89725  18.89726 128.72880  1       17
siesta:     18.89725  18.89726 249.82250  1       18
siesta:     18.89725  18.89726 370.91619  1       19
siesta:     18.89725  18.89726 492.00989  1       20
siesta:     18.89725  18.89726  10.09114  1       21
siesta:     18.89725  18.89726 131.18484  1       22
siesta:     18.89725  18.89726 252.27854  1       23
siesta:     18.89725  18.89726 373.37224  1       24
siesta:     18.89725  18.89726 494.46593  1       25
siesta:     18.89725  18.89726  12.68067  1       26
siesta:     18.89725  18.89726 133.77437  1       27
siesta:     18.89725  18.89726 254.86807  1       28
siesta:     18.89725  18.89726 375.96177  1       29
siesta:     18.89725  18.89726 497.05546  1       30
siesta:     18.89725  18.89726  15.13671  1       31
siesta:     18.89725  18.89726 136.23041  1       32
siesta:     18.89725  18.89726 257.32411  1       33
siesta:     18.89725  18.89726 378.41781  1       34
siesta:     18.89725  18.89726 499.51151  1       35
siesta:     18.89725  18.89726  17.72624  1       36
siesta:     18.89725  18.89726 138.81994  1       37
siesta:     18.89725  18.89726 259.91364  1       38
siesta:     18.89725  18.89726 381.00734  1       39
siesta:     18.89725  18.89726 502.10103  1       40
siesta:     18.89725  18.89726  20.18228  1       41
siesta:     18.89725  18.89726 141.27598  1       42
siesta:     18.89725  18.89726 262.36968  1       43
siesta:     18.89725  18.89726 383.46338  1       44
siesta:     18.89725  18.89726 504.55708  1       45
siesta:     18.89725  18.89726  22.77181  1       46
siesta:     18.89725  18.89726 143.86551  1       47
siesta:     18.89725  18.89726 264.95921  1       48
siesta:     18.89725  18.89726 386.05291  1       49
siesta:     18.89725  18.89726 507.14660  1       50
siesta:     18.89725  18.89726  25.22785  1       51
siesta:     18.89725  18.89726 146.32155  1       52
siesta:     18.89725  18.89726 267.41525  1       53
siesta:     18.89725  18.89726 388.50895  1       54
siesta:     18.89725  18.89726 509.60265  1       55
siesta:     18.89725  18.89726  27.81738  1       56
siesta:     18.89725  18.89726 148.91108  1       57
siesta:     18.89725  18.89726 270.00478  1       58
siesta:     18.89725  18.89726 391.09848  1       59
siesta:     18.89725  18.89726 512.19218  1       60
siesta:     18.89725  18.89726  30.27342  1       61
siesta:     18.89725  18.89726 151.36712  1       62
siesta:     18.89725  18.89726 272.46082  1       63
siesta:     18.89725  18.89726 393.55452  1       64
siesta:     18.89725  18.89726 514.64822  1       65
siesta:     18.89725  18.89726  32.86295  1       66
siesta:     18.89725  18.89726 153.95665  1       67
siesta:     18.89725  18.89726 275.05035  1       68
siesta:     18.89725  18.89726 396.14405  1       69
siesta:     18.89725  18.89726 517.23775  1       70
siesta:     18.89725  18.89726  35.31900  1       71
siesta:     18.89725  18.89726 156.41269  1       72
siesta:     18.89725  18.89726 277.50639  1       73
siesta:     18.89725  18.89726 398.60009  1       74
siesta:     18.89725  18.89726 519.69379  1       75
siesta:     18.89725  18.89726  37.90852  1       76
siesta:     18.89725  18.89726 159.00222  1       77
siesta:     18.89725  18.89726 280.09592  1       78
siesta:     18.89725  18.89726 401.18962  1       79
siesta:     18.89725  18.89726 522.28332  1       80
siesta:     18.89725  18.89726  40.36457  1       81
siesta:     18.89725  18.89726 161.45826  1       82
siesta:     18.89725  18.89726 282.55196  1       83
siesta:     18.89725  18.89726 403.64566  1       84
siesta:     18.89725  18.89726 524.73936  1       85
siesta:     18.89725  18.89726  42.95409  1       86
siesta:     18.89725  18.89726 164.04779  1       87
siesta:     18.89725  18.89726 285.14149  1       88
siesta:     18.89725  18.89726 406.23519  1       89
siesta:     18.89725  18.89726 527.32889  1       90
siesta:     18.89725  18.89726  45.41014  1       91
siesta:     18.89725  18.89726 166.50384  1       92
siesta:     18.89725  18.89726 287.59753  1       93
siesta:     18.89725  18.89726 408.69123  1       94
siesta:     18.89725  18.89726 529.78493  1       95
siesta:     18.89725  18.89726  47.99967  1       96
siesta:     18.89725  18.89726 169.09336  1       97
siesta:     18.89725  18.89726 290.18706  1       98
siesta:     18.89725  18.89726 411.28076  1       99
siesta:     18.89725  18.89726 532.37446  1      100
siesta:     18.89725  18.89726  50.45571  1      101
siesta:     18.89725  18.89726 171.54941  1      102
siesta:     18.89725  18.89726 292.64310  1      103
siesta:     18.89725  18.89726 413.73680  1      104
siesta:     18.89725  18.89726 534.83050  1      105
siesta:     18.89725  18.89726  53.04524  1      106
siesta:     18.89725  18.89726 174.13893  1      107
siesta:     18.89725  18.89726 295.23263  1      108
siesta:     18.89725  18.89726 416.32633  1      109
siesta:     18.89725  18.89726 537.42003  1      110
siesta:     18.89725  18.89726  55.50128  1      111
siesta:     18.89725  18.89726 176.59498  1      112
siesta:     18.89725  18.89726 297.68868  1      113
siesta:     18.89725  18.89726 418.78237  1      114
siesta:     18.89725  18.89726 539.87607  1      115
siesta:     18.89725  18.89726  58.09081  1      116
siesta:     18.89725  18.89726 179.18451  1      117
siesta:     18.89725  18.89726 300.27820  1      118
siesta:     18.89725  18.89726 421.37190  1      119
siesta:     18.89725  18.89726 542.46560  1      120
siesta:     18.89725  18.89726  60.54685  1      121
siesta:     18.89725  18.89726 181.64055  1      122
siesta:     18.89725  18.89726 302.73425  1      123
siesta:     18.89725  18.89726 423.82794  1      124
siesta:     18.89725  18.89726 544.92164  1      125
siesta:     18.89725  18.89726  63.13638  1      126
siesta:     18.89725  18.89726 184.23008  1      127
siesta:     18.89725  18.89726 305.32377  1      128
siesta:     18.89725  18.89726 426.41747  1      129
siesta:     18.89725  18.89726 547.51117  1      130
siesta:     18.89725  18.89726  65.59242  1      131
siesta:     18.89725  18.89726 186.68612  1      132
siesta:     18.89725  18.89726 307.77982  1      133
siesta:     18.89725  18.89726 428.87351  1      134
siesta:     18.89725  18.89726 549.96721  1      135
siesta:     18.89725  18.89726  68.18195  1      136
siesta:     18.89725  18.89726 189.27565  1      137
siesta:     18.89725  18.89726 310.36935  1      138
siesta:     18.89725  18.89726 431.46304  1      139
siesta:     18.89725  18.89726 552.55674  1      140
siesta:     18.89725  18.89726  70.63799  1      141
siesta:     18.89725  18.89726 191.73169  1      142
siesta:     18.89725  18.89726 312.82539  1      143
siesta:     18.89725  18.89726 433.91909  1      144
siesta:     18.89725  18.89726 555.01278  1      145
siesta:     18.89725  18.89726  73.22752  1      146
siesta:     18.89725  18.89726 194.32122  1      147
siesta:     18.89725  18.89726 315.41492  1      148
siesta:     18.89725  18.89726 436.50861  1      149
siesta:     18.89725  18.89726 557.60231  1      150
siesta:     18.89725  18.89726  75.68356  1      151
siesta:     18.89725  18.89726 196.77726  1      152
siesta:     18.89725  18.89726 317.87096  1      153
siesta:     18.89725  18.89726 438.96466  1      154
siesta:     18.89725  18.89726 560.05835  1      155
siesta:     18.89725  18.89726  78.27309  1      156
siesta:     18.89725  18.89726 199.36679  1      157
siesta:     18.89725  18.89726 320.46049  1      158
siesta:     18.89725  18.89726 441.55418  1      159
siesta:     18.89725  18.89726 562.64788  1      160
siesta:     18.89725  18.89726  80.72913  1      161
siesta:     18.89725  18.89726 201.82283  1      162
siesta:     18.89725  18.89726 322.91653  1      163
siesta:     18.89725  18.89726 444.01023  1      164
siesta:     18.89725  18.89726 565.10393  1      165
siesta:     18.89725  18.89726  83.31866  1      166
siesta:     18.89725  18.89726 204.41236  1      167
siesta:     18.89725  18.89726 325.50606  1      168
siesta:     18.89725  18.89726 446.59976  1      169
siesta:     18.89725  18.89726 567.69345  1      170
siesta:     18.89725  18.89726  85.77470  1      171
siesta:     18.89725  18.89726 206.86840  1      172
siesta:     18.89725  18.89726 327.96210  1      173
siesta:     18.89725  18.89726 449.05580  1      174
siesta:     18.89725  18.89726 570.14950  1      175
siesta:     18.89725  18.89726  88.36423  1      176
siesta:     18.89725  18.89726 209.45793  1      177
siesta:     18.89725  18.89726 330.55163  1      178
siesta:     18.89725  18.89726 451.64533  1      179
siesta:     18.89725  18.89726 572.73902  1      180
siesta:     18.89725  18.89726  90.82027  1      181
siesta:     18.89725  18.89726 211.91397  1      182
siesta:     18.89725  18.89726 333.00767  1      183
siesta:     18.89725  18.89726 454.10137  1      184
siesta:     18.89725  18.89726 575.19507  1      185
siesta:     18.89725  18.89726  93.40980  1      186
siesta:     18.89725  18.89726 214.50350  1      187
siesta:     18.89725  18.89726 335.59720  1      188
siesta:     18.89725  18.89726 456.69090  1      189
siesta:     18.89725  18.89726 577.78460  1      190
siesta:     18.89725  18.89726  95.86584  1      191
siesta:     18.89725  18.89726 216.95954  1      192
siesta:     18.89725  18.89726 338.05324  1      193
siesta:     18.89725  18.89726 459.14694  1      194
siesta:     18.89725  18.89726 580.24064  1      195
siesta:     18.89725  18.89726  98.45537  1      196
siesta:     18.89725  18.89726 219.54907  1      197
siesta:     18.89725  18.89726 340.64277  1      198
siesta:     18.89725  18.89726 461.73647  1      199
siesta:     18.89725  18.89726 582.83017  1      200
siesta:     18.89725  18.89726 100.91142  1      201
siesta:     18.89725  18.89726 222.00511  1      202
siesta:     18.89725  18.89726 343.09881  1      203
siesta:     18.89725  18.89726 464.19251  1      204
siesta:     18.89725  18.89726 585.28621  1      205
siesta:     18.89725  18.89726 103.50094  1      206
siesta:     18.89725  18.89726 224.59464  1      207
siesta:     18.89725  18.89726 345.68834  1      208
siesta:     18.89725  18.89726 466.78204  1      209
siesta:     18.89725  18.89726 587.87574  1      210
siesta:     18.89725  18.89726 105.95699  1      211
siesta:     18.89725  18.89726 227.05068  1      212
siesta:     18.89725  18.89726 348.14438  1      213
siesta:     18.89725  18.89726 469.23808  1      214
siesta:     18.89725  18.89726 590.33178  1      215
siesta:     18.89725  18.89726 108.54651  1      216
siesta:     18.89725  18.89726 229.64021  1      217
siesta:     18.89725  18.89726 350.73391  1      218
siesta:     18.89725  18.89726 471.82761  1      219
siesta:     18.89725  18.89726 592.92131  1      220
siesta:     18.89725  18.89726 111.00256  1      221
siesta:     18.89725  18.89726 232.09626  1      222
siesta:     18.89725  18.89726 353.18995  1      223
siesta:     18.89725  18.89726 474.28365  1      224
siesta:     18.89725  18.89726 595.37735  1      225
siesta:     18.89725  18.89726 113.59209  1      226
siesta:     18.89725  18.89726 234.68578  1      227
siesta:     18.89725  18.89726 355.77948  1      228
siesta:     18.89725  18.89726 476.87318  1      229
siesta:     18.89725  18.89726 597.96688  1      230
siesta:     18.89725  18.89726 116.04813  1      231
siesta:     18.89725  18.89726 237.14183  1      232
siesta:     18.89725  18.89726 358.23552  1      233
siesta:     18.89725  18.89726 479.32922  1      234
siesta:     18.89725  18.89726 600.42292  1      235
siesta:     18.89725  18.89726 118.63766  1      236
siesta:     18.89725  18.89726 239.73135  1      237
siesta:     18.89725  18.89726 360.82505  1      238
siesta:     18.89725  18.89726 481.91875  1      239
siesta:     18.89725  18.89726 603.01245  1      240

siesta: System type = chain     

initatomlists: Number of atoms, orbitals, and projectors:    240  3120  3840

siesta: ******************** Simulation parameters ****************************
siesta:
siesta: The following are some of the parameters of the simulation.
siesta: A complete list of the parameters used, including default values,
siesta: can be found in file out.fdf
siesta:
redata: Non-Collinear-spin run           =     F
redata: SpinPolarized (Up/Down) run      =     F
redata: Number of spin components        =     1
redata: Long output                      =     F
redata: Number of Atomic Species         =        1
redata: Charge density info will appear in .RHO file
redata: Write Mulliken Pop.              =     NO
redata: Mesh Cutoff                      =   100.0000  Ry
redata: Net charge of the system         =     0.0000 |e|
redata: Max. number of SCF Iter          =      300
redata: SCF convergence failure will abort job
redata: Performing Pulay mixing using    =     3 iterations
redata: Mix DM in first SCF step ?       =     F
redata: Write Pulay info on disk?        =     F
redata: Discard 1st Pulay DM after  kick =     F
redata: New DM Mixing Weight             =     0.1000
redata: New DM Occupancy tolerance       = 0.000000000001
redata: No kicks to SCF
redata: DM Mixing Weight for Kicks       =     0.5000
redata: DM Tolerance for SCF             =     0.000100
redata: Require Energy convergence for SCF =     F
redata: DM Energy tolerance for SCF      =     0.000100 eV
redata: Require Harris convergence for SCF =     F
redata: DM Harris energy tolerance for SCF =     0.000100 eV
redata: Using Saved Data (generic)   =     F
redata: Use continuation files for DM    =     T
redata: Neglect nonoverlap interactions  =     F
redata: Method of Calculation            =     Diagonalization
redata: Divide and Conquer               =     T
redata: Electronic Temperature           =     0.0019  Ry
redata: Fix the spin of the system       =     F
redata: Dynamics option                  =     Verlet MD run
redata: Initial MD time step             =        1
redata:   Final MD time step             =        1
redata: Length of MD time step           =     1.0000  fs
redata: Initial Temperature of MD run    =     0.0000  K
redata: Perform a MD quench              =     F
redata: ***********************************************************************
Total number of electrons:   960.000000
Total ionic charge:   960.000000

* ProcessorY, Blocksize:    2  24

 Kpoints in:            1 . Kpoints trimmed:            1

siesta: k-grid: Number of k-points =     1
siesta: k-grid: Cutoff (effective) =    10.000 Ang
siesta: k-grid: Supercell and displacements
siesta: k-grid:    1   0   0      0.000
siesta: k-grid:    0   1   0      0.000
siesta: k-grid:    0   0   1      0.000

* Maximum dynamic memory allocated =     1 MB

siesta:                 ==============================
                            Begin MD step =      1
                        ==============================

outcell: Unit cell vectors (Ang):
       20.000000    0.000000    0.000000
        0.000000   20.000000    0.000000
        0.000000    0.000000  320.400000

outcell: Cell vector modules (Ang)   :   20.000000   20.000000  320.400000
outcell: Cell angles (23,13,12) (deg):     90.0000     90.0000     90.0000
outcell: Cell volume (Ang**3)        : 128160.0000
New_DM. Step:     1
Initializing Density Matrix...

InitMesh: MESH =   128 x   128 x  1944 =    31850496
InitMesh: Mesh cutoff (required, used) =   100.000   101.744 Ry

* Maximum dynamic memory allocated =   279 MB

stepf: Fermi-Dirac step function

siesta: Program's energy decomposition (eV):
siesta: Ebs     =    -14225.585322
siesta: Eions   =     61343.370237
siesta: Ena     =     13755.825026
siesta: Ekin    =     21260.581827
siesta: Enl     =       675.196398
siesta: DEna    =        -0.000036
siesta: DUscf   =         0.000000
siesta: DUext   =         0.000000
siesta: Exc     =    -12703.811712
siesta: eta*DQ  =         0.000000
siesta: Emadel  =         0.000000
siesta: Emeta   =         0.000000
siesta: Emolmec =         0.000000
siesta: Ekinion =         0.000000
siesta: Eharris =    -38713.878317
siesta: Etot    =    -38355.578735
siesta: FreeEng =    -38355.578735

siesta: iscf   Eharris(eV)      E_KS(eV)   FreeEng(eV)   dDmax  Ef(eV)
siesta:    1   -38713.8783   -38355.5787   -38355.5787  1.8525 -6.6211
timer: Routine,Calls,Time,% = IterSCF        1     136.597  95.42
elaps: Routine,Calls,Wall,% = IterSCF        1      17.090  95.29
siesta:    2   -38679.7613   -38645.4499   -38645.4499  0.1233 -4.3572
siesta:    3   -38672.8972   -38633.8494   -38633.8500  0.1210 -4.6185
siesta:    4   -38667.3211   -38661.7569   -38661.7572  0.0090 -5.1324
siesta:    5   -38667.3044   -38662.4032   -38662.4032  0.0050 -5.1704
siesta:    6   -38667.2984   -38662.7427   -38662.7427  0.0037 -5.1738
siesta:    7   -38667.2879   -38663.6834   -38663.6835  0.0059 -5.1704
siesta:    8   -38667.2866   -38664.3388   -38664.3389  0.0056 -5.1652
siesta:    9   -38667.2876   -38665.2082   -38665.2082  0.0034 -5.1600
siesta:   10   -38667.2875   -38665.7555   -38665.7555  0.0017 -5.1608
siesta:   11   -38667.2873   -38665.9924   -38665.9924  0.0013 -5.1638
siesta:   12   -38667.2871   -38666.1025   -38666.1026  0.0008 -5.1688
siesta:   13   -38667.2866   -38666.1933   -38666.1933  0.0008 -5.1698
siesta:   14   -38667.2867   -38666.4455   -38666.4455  0.0013 -5.1687
siesta:   15   -38667.2866   -38666.5769   -38666.5769  0.0012 -5.1677
siesta:   16   -38667.2864   -38666.8597   -38666.8597  0.0006 -5.1659
siesta:   17   -38667.2860   -38666.9491   -38666.9492  0.0004 -5.1660
siesta:   18   -38667.2866   -38667.0211   -38667.0211  0.0002 -5.1669
siesta:   19   -38667.2867   -38667.0307   -38667.0307  0.0002 -5.1676
siesta:   20   -38667.2865   -38667.0447   -38667.0447  0.0002 -5.1681
siesta:   21   -38667.2861   -38667.0778   -38667.0778  0.0002 -5.1679
siesta:   22   -38667.2860   -38667.1147   -38667.1147  0.0002 -5.1676
siesta:   23   -38667.2866   -38667.1803   -38667.1803  0.0001 -5.1672
siesta:   24   -38667.2865   -38667.2067   -38667.2067  0.0001 -5.1672

siesta: E_KS(eV) =           -38667.2302

siesta: E_KS - E_eggbox =    -38667.2302

siesta: Atomic forces (eV/Ang):
----------------------------------------
   Tot   -0.005227   -0.002684   -0.033181
----------------------------------------
   Max    0.930750
   Res    0.044035    sqrt( Sum f_i^2 / 3N )
----------------------------------------
   Max    0.930750    constrained

Stress-tensor-Voigt (kbar):        0.00        0.00        8.79        0.00        0.00        0.00
(Free)E + p*V (eV/cell)   -38901.8569
Target enthalpy (eV/cell)   -38667.2302

siesta: Stress tensor (static) (eV/Ang**3):
         0.000002    0.000000    0.000000
         0.000000    0.000002    0.000000
         0.000000    0.000000    0.005488

siesta: Pressure (static):         -2.93318854  kBar

siesta: Stress tensor (total) (eV/Ang**3):
         0.000002    0.000000    0.000000
         0.000000    0.000002    0.000000
         0.000000    0.000000    0.005488

siesta: Pressure (total):         -2.93318854  kBar

siesta: Temp_ion =       0.000 K

* Maximum dynamic memory allocated =   340 MB

siesta: Program's energy decomposition (eV):
siesta: Ebs     =    -12547.028323
siesta: Eions   =     61343.370237
siesta: Ena     =     13755.825026
siesta: Ekin    =     24819.836646
siesta: Enl     =     -2439.221917
siesta: DEna    =      -564.787348
siesta: DUscf   =        59.419544
siesta: DUext   =         0.000000
siesta: Exc     =    -12954.931878
siesta: eta*DQ  =         0.000000
siesta: Emadel  =         0.000000
siesta: Emeta   =         0.000000
siesta: Emolmec =         0.000000
siesta: Ekinion =         0.000000
siesta: Eharris =    -38667.286478
siesta: Etot    =    -38667.230164
siesta: FreeEng =    -38667.230201

siesta: Final energy (eV):
siesta:  Band Struct. =  -12547.028323
siesta:       Kinetic =   24819.836646
siesta:       Hartree =   80878.098423
siesta:    Ext. field =       0.000000
siesta:   Exch.-corr. =  -12954.931878
siesta:  Ion-electron = -184667.050403
siesta:       Ion-ion =   53256.817047
siesta:       Ekinion =       0.000000
siesta:         Total =  -38667.230164

siesta: Atomic forces (eV/Ang):
siesta:      1    0.002997   -0.000012    0.930750
siesta:      2   -0.000010   -0.000004   -0.009648
siesta:      3   -0.000008   -0.000001   -0.002094
siesta:      4   -0.000010   -0.000006    0.010141
siesta:      5   -0.000014   -0.000002   -0.023328
siesta:      6   -0.002099   -0.000012   -0.235994
siesta:      7   -0.000013   -0.000014    0.004402
siesta:      8   -0.000007   -0.000006    0.060539
siesta:      9   -0.000014   -0.000007   -0.022797
siesta:     10   -0.000013   -0.000007   -0.005077
siesta:     11   -0.000330   -0.000007   -0.178573
siesta:     12   -0.000051   -0.000030   -0.030560
siesta:     13   -0.000016   -0.000008   -0.009626
siesta:     14   -0.000019   -0.000004   -0.002090
siesta:     15   -0.000018   -0.000011    0.010133
siesta:     16    0.000257   -0.000006    0.078131
siesta:     17   -0.000019   -0.000020    0.016233
siesta:     18   -0.000014   -0.000013    0.004378
siesta:     19   -0.000007   -0.000008    0.060532
siesta:     20   -0.000014   -0.000009   -0.022761
siesta:     21    0.000019   -0.000010   -0.045563
siesta:     22   -0.000023   -0.000011   -0.023322
siesta:     23   -0.000051   -0.000029   -0.030550
siesta:     24   -0.000016   -0.000008   -0.009628
siesta:     25   -0.000018   -0.000005   -0.002124
siesta:     26   -0.000043   -0.000010    0.013846
siesta:     27   -0.000012   -0.000008   -0.005078
siesta:     28   -0.000019   -0.000020    0.016219
siesta:     29   -0.000014   -0.000015    0.004377
siesta:     30   -0.000006   -0.000009    0.060574
siesta:     31   -0.000032   -0.000006   -0.028697
siesta:     32   -0.000020   -0.000010    0.010153
siesta:     33   -0.000020   -0.000010   -0.023318
siesta:     34   -0.000050   -0.000030   -0.030549
siesta:     35   -0.000015   -0.000011   -0.009681
siesta:     36   -0.000005   -0.000007    0.080340
siesta:     37   -0.000012   -0.000007   -0.022780
siesta:     38   -0.000011   -0.000007   -0.005088
siesta:     39   -0.000018   -0.000019    0.016218
siesta:     40   -0.000016   -0.000015    0.004430
siesta:     41   -0.000017   -0.000010   -0.024869
siesta:     42   -0.000020   -0.000002   -0.002090
siesta:     43   -0.000018   -0.000010    0.010157
siesta:     44   -0.000022   -0.000011   -0.023317
siesta:     45   -0.000048   -0.000030   -0.030620
siesta:     46   -0.000015   -0.000014    0.016054
siesta:     47   -0.000008   -0.000008    0.060541
siesta:     48   -0.000013   -0.000005   -0.022789
siesta:     49   -0.000010   -0.000005   -0.005092
siesta:     50   -0.000017   -0.000019    0.016298
siesta:     51   -0.000049   -0.000026   -0.040015
siesta:     52   -0.000014   -0.000009   -0.009629
siesta:     53   -0.000020   -0.000005   -0.002090
siesta:     54   -0.000020   -0.000010    0.010157
siesta:     55   -0.000024   -0.000011   -0.023406
siesta:     56   -0.000018   -0.000020    0.023609
siesta:     57   -0.000014   -0.000013    0.004380
siesta:     58   -0.000007   -0.000009    0.060535
siesta:     59   -0.000013   -0.000006   -0.022793
siesta:     60   -0.000009   -0.000006   -0.004989
siesta:     61   -0.000021   -0.000008   -0.029394
siesta:     62   -0.000051   -0.000030   -0.030548
siesta:     63   -0.000015   -0.000009   -0.009626
siesta:     64   -0.000019   -0.000005   -0.002090
siesta:     65   -0.000017   -0.000012    0.010040
siesta:     66   -0.000012   -0.000005   -0.000191
siesta:     67   -0.000019   -0.000018    0.016222
siesta:     68   -0.000014   -0.000015    0.004379
siesta:     69   -0.000007   -0.000007    0.060534
siesta:     70   -0.000013   -0.000006   -0.022653
siesta:     71   -0.000019   -0.000013    0.006104
siesta:     72   -0.000021   -0.000010   -0.023315
siesta:     73   -0.000051   -0.000027   -0.030548
siesta:     74   -0.000015   -0.000009   -0.009629
siesta:     75   -0.000019   -0.000003   -0.002256
siesta:     76   -0.000012   -0.000008   -0.019465
siesta:     77   -0.000011   -0.000005   -0.005088
siesta:     78   -0.000020   -0.000021    0.016222
siesta:     79   -0.000016   -0.000013    0.004376
siesta:     80   -0.000009   -0.000007    0.060718
siesta:     81   -0.000021   -0.000009   -0.004879
siesta:     82   -0.000019   -0.000008    0.010162
siesta:     83   -0.000020   -0.000010   -0.023317
siesta:     84   -0.000051   -0.000029   -0.030550
siesta:     85   -0.000017   -0.000007   -0.009845
siesta:     86   -0.000005   -0.000007    0.062836
siesta:     87   -0.000013   -0.000007   -0.022787
siesta:     88   -0.000010   -0.000008   -0.005088
siesta:     89   -0.000017   -0.000019    0.016218
siesta:     90   -0.000015   -0.000011    0.004628
siesta:     91   -0.000017   -0.000008   -0.011578
siesta:     92   -0.000020   -0.000004   -0.002085
siesta:     93   -0.000020   -0.000010    0.010157
siesta:     94   -0.000021   -0.000011   -0.023316
siesta:     95   -0.000051   -0.000026   -0.030842
siesta:     96   -0.000014   -0.000015    0.006003
siesta:     97   -0.000007   -0.000007    0.060536
siesta:     98   -0.000014   -0.000006   -0.022789
siesta:     99   -0.000009   -0.000004   -0.005093
siesta:    100   -0.000021   -0.000019    0.016557
siesta:    101   -0.000051   -0.000027   -0.031938
siesta:    102   -0.000016   -0.000010   -0.009625
siesta:    103   -0.000018   -0.000004   -0.002090
siesta:    104   -0.000020   -0.000010    0.010157
siesta:    105   -0.000022   -0.000012   -0.023714
siesta:    106   -0.000019   -0.000019    0.017379
siesta:    107   -0.000014   -0.000014    0.004377
siesta:    108   -0.000007   -0.000009    0.060536
siesta:    109   -0.000013   -0.000006   -0.022794
siesta:    110   -0.000008   -0.000007   -0.004633
siesta:    111   -0.000021   -0.000011   -0.024318
siesta:    112   -0.000049   -0.000028   -0.030547
siesta:    113   -0.000015   -0.000008   -0.009627
siesta:    114   -0.000018   -0.000002   -0.002088
siesta:    115   -0.000018   -0.000011    0.009619
siesta:    116   -0.000011   -0.000005   -0.004245
siesta:    117   -0.000019   -0.000021    0.016222
siesta:    118   -0.000015   -0.000014    0.004377
siesta:    119   -0.000007   -0.000007    0.060532
siesta:    120   -0.000013   -0.000008   -0.022169
siesta:    121   -0.000019   -0.000013    0.009432
siesta:    122   -0.000021   -0.000010   -0.023313
siesta:    123   -0.000051   -0.000028   -0.030550
siesta:    124   -0.000016   -0.000008   -0.009627
siesta:    125   -0.000017   -0.000004   -0.002821
siesta:    126   -0.000009   -0.000007   -0.022181
siesta:    127   -0.000009   -0.000007   -0.005090
siesta:    128   -0.000020   -0.000021    0.016222
siesta:    129   -0.000014   -0.000014    0.004374
siesta:    130   -0.000009   -0.000006    0.061391
siesta:    131   -0.000019   -0.000002   -0.002615
siesta:    132   -0.000020   -0.000010    0.010159
siesta:    133   -0.000021   -0.000010   -0.023317
siesta:    134   -0.000050   -0.000028   -0.030550
siesta:    135   -0.000014   -0.000004   -0.010630
siesta:    136   -0.000008   -0.000009    0.060986
siesta:    137   -0.000013   -0.000007   -0.022790
siesta:    138   -0.000010   -0.000008   -0.005089
siesta:    139   -0.000020   -0.000020    0.016218
siesta:    140   -0.000013   -0.000009    0.005571
siesta:    141   -0.000016   -0.000008   -0.010016
siesta:    142   -0.000018   -0.000003   -0.002087
siesta:    143   -0.000019   -0.000009    0.010158
siesta:    144   -0.000023   -0.000010   -0.023314
siesta:    145   -0.000052   -0.000030   -0.031948
siesta:    146   -0.000014   -0.000013    0.004713
siesta:    147   -0.000008   -0.000007    0.060537
siesta:    148   -0.000013   -0.000006   -0.022788
siesta:    149   -0.000011   -0.000006   -0.005092
siesta:    150   -0.000020   -0.000018    0.017874
siesta:    151   -0.000050   -0.000029   -0.030839
siesta:    152   -0.000017   -0.000008   -0.009625
siesta:    153   -0.000019   -0.000005   -0.002090
siesta:    154   -0.000019   -0.000011    0.010159
siesta:    155   -0.000023   -0.000013   -0.025273
siesta:    156   -0.000019   -0.000019    0.016469
siesta:    157   -0.000015   -0.000015    0.004378
siesta:    158   -0.000007   -0.000009    0.060536
siesta:    159   -0.000014   -0.000006   -0.022794
siesta:    160   -0.000013   -0.000004   -0.002733
siesta:    161   -0.000022   -0.000011   -0.023529
siesta:    162   -0.000050   -0.000030   -0.030547
siesta:    163   -0.000015   -0.000008   -0.009627
siesta:    164   -0.000019   -0.000005   -0.002091
siesta:    165   -0.000020   -0.000014    0.007359
siesta:    166   -0.000007   -0.000006   -0.004906
siesta:    167   -0.000018   -0.000019    0.016219
siesta:    168   -0.000014   -0.000014    0.004378
siesta:    169   -0.000008   -0.000007    0.060533
siesta:    170   -0.000013   -0.000008   -0.019388
siesta:    171   -0.000019   -0.000012    0.010000
siesta:    172   -0.000022   -0.000010   -0.023313
siesta:    173   -0.000051   -0.000028   -0.030548
siesta:    174   -0.000014   -0.000008   -0.009630
siesta:    175   -0.000019   -0.000003   -0.006161
siesta:    176   -0.000012   -0.000007   -0.022654
siesta:    177   -0.000011   -0.000006   -0.005090
siesta:    178   -0.000018   -0.000021    0.016219
siesta:    179   -0.000013   -0.000013    0.004376
siesta:    180   -0.000005   -0.000005    0.065545
siesta:    181   -0.000017   -0.000004   -0.002206
siesta:    182   -0.000020   -0.000009    0.010159
siesta:    183   -0.000021   -0.000009   -0.023318
siesta:    184   -0.000051   -0.000030   -0.030554
siesta:    185   -0.000017   -0.000010   -0.015739
siesta:    186   -0.000007   -0.000005    0.060635
siesta:    187   -0.000013   -0.000006   -0.022790
siesta:    188   -0.000011   -0.000007   -0.005089
siesta:    189   -0.000017   -0.000018    0.016220
siesta:    190   -0.000014   -0.000013    0.011958
siesta:    191   -0.000015   -0.000006   -0.009714
siesta:    192   -0.000018   -0.000003   -0.002087
siesta:    193   -0.000019   -0.000008    0.010157
siesta:    194   -0.000022   -0.000009   -0.023322
siesta:    195   -0.000047   -0.000025   -0.040027
siesta:    196   -0.000016   -0.000016    0.004456
siesta:    197   -0.000008   -0.000009    0.060535
siesta:    198   -0.000014   -0.000006   -0.022789
siesta:    199   -0.000010   -0.000005   -0.005090
siesta:    200   -0.000013   -0.000017    0.028311
siesta:    201   -0.000049   -0.000030   -0.030617
siesta:    202   -0.000017   -0.000009   -0.009625
siesta:    203   -0.000020   -0.000003   -0.002091
siesta:    204   -0.000020   -0.000010    0.010154
siesta:    205   -0.000017   -0.000008   -0.038573
siesta:    206   -0.000018   -0.000020    0.016278
siesta:    207   -0.000013   -0.000016    0.004376
siesta:    208   -0.000007   -0.000007    0.060535
siesta:    209   -0.000013   -0.000006   -0.022786
siesta:    210   -0.000011   -0.000004    0.015572
siesta:    211   -0.000024   -0.000009   -0.023363
siesta:    212   -0.000051   -0.000029   -0.030548
siesta:    213   -0.000016   -0.000008   -0.009628
siesta:    214   -0.000019   -0.000003   -0.002097
siesta:    215   -0.000017   -0.000010   -0.016713
siesta:    216   -0.000011   -0.000006   -0.005050
siesta:    217   -0.000019   -0.000021    0.016220
siesta:    218   -0.000014   -0.000014    0.004377
siesta:    219   -0.000008   -0.000009    0.060541
siesta:    220   -0.000012   -0.000007    0.015275
siesta:    221   -0.000017   -0.000012    0.010123
siesta:    222   -0.000020   -0.000011   -0.023315
siesta:    223   -0.000052   -0.000031   -0.030548
siesta:    224   -0.000017   -0.000007   -0.009640
siesta:    225    0.000016   -0.000005   -0.058069
siesta:    226   -0.000014   -0.000007   -0.022759
siesta:    227   -0.000012   -0.000006   -0.005085
siesta:    228   -0.000020   -0.000020    0.016219
siesta:    229   -0.000012   -0.000014    0.004384
siesta:    230    0.000154   -0.000005    0.149744
siesta:    231   -0.000018   -0.000005   -0.002119
siesta:    232   -0.000019   -0.000009    0.010156
siesta:    233   -0.000022   -0.000007   -0.023322
siesta:    234   -0.000049   -0.000029   -0.030569
siesta:    235   -0.000285   -0.000012   -0.166343
siesta:    236   -0.000001   -0.000003    0.060553
siesta:    237   -0.000009   -0.000004   -0.022795
siesta:    238   -0.000004   -0.000002   -0.005091
siesta:    239   -0.000006   -0.000007    0.016219
siesta:    240   -0.001625   -0.000006   -0.478645
siesta: ----------------------------------------
siesta:    Tot   -0.005227   -0.002684   -0.033181

siesta: Stress tensor (static) (eV/Ang**3):
siesta:     0.000002    0.000000    0.000000
siesta:     0.000000    0.000002    0.000000
siesta:     0.000000    0.000000    0.005488

siesta: Cell volume =     128160.000000 Ang**3

siesta: Pressure (static):
siesta:                Solid            Molecule  Units
siesta:          -0.00001994         -0.00002326  Ry/Bohr**3
siesta:          -0.00183073         -0.00213548  eV/Ang**3
siesta:          -2.93318854         -3.42145058  kBar
(Free)E+ p_basis*V_orbitals  =      -38564.771469
(Free)Eharris+ p_basis*V_orbitals  =      -38564.851255

siesta: Electric dipole (a.u.)  =    0.000001    0.000001    0.000000
siesta: Electric dipole (Debye) =    0.000003    0.000003    0.000000

* Maximum dynamic memory allocated : Node    0 =   339 MB
* Maximum dynamic memory allocated : Node    1 =   339 MB
* Maximum dynamic memory allocated : Node    2 =   336 MB
* Maximum dynamic memory allocated : Node    3 =   336 MB
* Maximum dynamic memory allocated : Node    4 =   340 MB
* Maximum dynamic memory allocated : Node    5 =   340 MB
* Maximum dynamic memory allocated : Node    6 =   339 MB
* Maximum dynamic memory allocated : Node    7 =   339 MB

* Maximum memory occured during redistribXZ                   

timer: CPU execution times:
timer:  Routine       Calls   Time/call    Tot.time        %
timer:  siesta            1    2230.403    2230.403   100.00
timer:  Setup             1       4.196       4.196     0.19
timer:  bands             1       0.022       0.022     0.00
timer:  writewave         1       0.069       0.069     0.00
timer:  KSV_init          1       0.012       0.012     0.00
timer:  IterMD            1    2225.775    2225.775    99.79
timer:  hsparse           1       0.067       0.067     0.00
timer:  overlap           1       2.038       2.038     0.09
timer:  IterSCF          24      90.201    2164.825    97.06
timer:  kinefsm           2       1.143       2.285     0.10
timer:  nlefsm            2       5.596      11.193     0.50
timer:  DHSCF            25      37.669     941.727    42.22
timer:  DHSCF1            1       4.916       4.916     0.22
timer:  DHSCF2            1      32.685      32.685     1.47
timer:  REORD           202       0.099      19.970     0.90
timer:  POISON           26      16.730     434.973    19.50
timer:  DHSCF3           25      35.200     879.990    39.45
timer:  rhoofd           25       5.547     138.667     6.22
timer:  cellXC           25       5.950     148.748     6.67
timer:  vmat             25       3.556      88.899     3.99
timer:  MolMec            2       0.001       0.001     0.00
timer:  diagon           24      52.180    1252.308    56.15
timer:  r-eigvec         24      51.402    1233.641    55.31
timer:  r-buildHS        24       0.115       2.760     0.12
timer:  rdiag            24      51.287    1230.880    55.19
timer:  rdiag1           24       1.880      45.123     2.02
timer:  rdiag2           24       7.931     190.347     8.53
timer:  rdiag3           24      36.184     868.427    38.94
timer:  rdiag4           24       4.613     110.721     4.96
timer:  r-buildD         24       0.755      18.119     0.81
timer:  DHSCF4            1      17.634      17.634     0.79
timer:  dfscf             1      16.002      16.002     0.72
timer:  overfsm           1       0.341       0.341     0.02
timer:  optical           1       0.375       0.375     0.02
  

elaps: ELAPSED times:
elaps:  Routine       Calls   Time/call    Tot.time        %
elaps:  siesta            1     278.906     278.906   100.00
elaps:  Setup             1       0.549       0.549     0.20
elaps:  bands             1       0.003       0.003     0.00
elaps:  writewave         1       0.009       0.009     0.00
elaps:  KSV_init          1       0.001       0.001     0.00
elaps:  IterMD            1     278.300     278.300    99.78
elaps:  hsparse           1       0.008       0.008     0.00
elaps:  overlap           1       0.258       0.258     0.09
elaps:  IterSCF          24      11.279     270.701    97.06
elaps:  kinefsm           2       0.146       0.291     0.10
elaps:  nlefsm            2       0.718       1.437     0.52
elaps:  DHSCF            25       4.706     117.646    42.18
elaps:  DHSCF1            1       0.603       0.603     0.22
elaps:  DHSCF2            1       4.101       4.101     1.47
elaps:  REORD           202       0.012       2.507     0.90
elaps:  POISON           26       2.091      54.363    19.49
elaps:  DHSCF3           25       4.400     110.003    39.44
elaps:  rhoofd           25       0.659      16.487     5.91
elaps:  cellXC           25       0.744      18.591     6.67
elaps:  vmat             25       0.444      11.097     3.98
elaps:  MolMec            2       0.000       0.000     0.00
elaps:  diagon           24       6.523     156.555    56.13
elaps:  r-eigvec         24       6.426     154.223    55.30
elaps:  r-buildHS        24       0.015       0.354     0.13
elaps:  rdiag            24       6.411     153.868    55.17
elaps:  rdiag1           24       0.235       5.640     2.02
elaps:  rdiag2           24       0.991      23.794     8.53
elaps:  rdiag3           24       4.524     108.576    38.93
elaps:  rdiag4           24       0.577      13.836     4.96
elaps:  r-buildD         24       0.094       2.264     0.81
elaps:  DHSCF4            1       2.119       2.119     0.76
elaps:  dfscf             1       1.922       1.922     0.69
elaps:  overfsm           1       0.044       0.044     0.02
elaps:  optical           1       0.002       0.002     0.00
  
>> End of run:  29-APR-2019  10:29:12
