Siesta Version:                                        siesta-3.2-pl-3
Architecture  : x86_64-unknown-linux-gnu--unknown
Compiler flags: mpiifort -g -O2 -fPIC -xSSE4.1 -fp-model source -shared-intel 
PARALLEL version

* Running in serial mode with MPI
>> Start of run:  17-JUN-2019  11:59:02

                           ***********************       
                           *  WELCOME TO SIESTA  *       
                           ***********************       

reinit: Reading from standard input
************************** Dump of input data file ****************************
#(1) General system descriptors
SystemName       siesta           # Descriptive name of the system
SystemLabel      siesta           # Short name for naming files
%include STRUCT.fdf
%include KPT.fdf
%include BASIS.fdf
#(4) DFT, Grid, SCF
XC.functional         GGA            # LDA or GGA (default = LDA)
XC.authors            PBE            # CA (Ceperley-Aldr) = PZ
MeshCutoff            100.000000    Ry      # Default: 50.0 Ry ~ 0.444 Bohr
                                    #         100.0 Ry ~ 0.314 Bohr
MaxSCFIterations      300           # Default: 50
DM.MixingWeight       0.10000          # Default: 0.25
DM.NumberPulay        0             # Default: 0
DM.PulayOnFile        F             # SystemLabel.P1, SystemLabel.P2
DM.Tolerance          1.d-4         # Default: 1.d-4
DM.UseSaveDM          .true.        # because of the bug
SCFMustConverge       .true.
NeglNonOverlapInt     F             # Default: F
#(5) Eigenvalue problem: order-N or diagonalization
SolutionMethod        Diagon
ElectronicTemperature 300.0 K       # Default: 300.0 K
Diag.ParallelOverK    true
************************** End of input data file *****************************

reinit: -----------------------------------------------------------------------
reinit: System Name: siesta
reinit: -----------------------------------------------------------------------
reinit: System Label: siesta                                                      
reinit: -----------------------------------------------------------------------

initatom: Reading input for the pseudopotentials and atomic orbitals ----------
 Species number:            1  Label: C Atomic number:           6
Ground state valence configuration:   2s02  2p02
Reading pseudopotential information in formatted form from C.psf

Valence configuration for pseudopotential generation:
2s( 2.00) rc: 1.54
2p( 2.00) rc: 1.54
3d( 0.00) rc: 1.54
4f( 0.00) rc: 1.54
For C, standard SIESTA heuristics set lmxkb to 2
 (one more than the basis l, including polarization orbitals).
Use PS.lmax or PS.KBprojectors blocks to override.

<basis_specs>
===============================================================================
C                    Z=   6    Mass=  12.010        Charge= 0.17977+309
Lmxo=1 Lmxkb= 2    BasisType=split      Semic=F
L=0  Nsemic=0  Cnfigmx=2
          n=1  nzeta=1  polorb=0
            splnorm:   0.15000    
               vcte:    0.0000    
               rinn:    0.0000    
                rcs:    0.0000    
            lambdas:    1.0000    
L=1  Nsemic=0  Cnfigmx=2
          n=1  nzeta=1  polorb=0
            splnorm:   0.15000    
               vcte:    0.0000    
               rinn:    0.0000    
                rcs:    0.0000    
            lambdas:    1.0000    
-------------------------------------------------------------------------------
L=0  Nkbl=1  erefs: 0.17977+309
L=1  Nkbl=1  erefs: 0.17977+309
L=2  Nkbl=1  erefs: 0.17977+309
===============================================================================
</basis_specs>

atom: Called for C                     (Z =   6)

read_vps: Pseudopotential generation method:
read_vps: ATM3      Troullier-Martins                       
Total valence charge:    4.00000

read_vps: Pseudopotential includes a core correction:
read_vps: Pseudo-core for xc-correction

xc_check: Exchange-correlation functional:
xc_check: GGA Perdew, Burke & Ernzerhof 1996
V l=0 = -2*Zval/r beyond r=  1.5227
V l=1 = -2*Zval/r beyond r=  1.5227
V l=2 = -2*Zval/r beyond r=  1.5227
All V_l potentials equal beyond r=  1.5227
This should be close to max(r_c) in ps generation
All pots = -2*Zval/r beyond r=  1.5227

VLOCAL1: 99.0% of the norm of Vloc inside     18.722 Ry
VLOCAL1: 99.9% of the norm of Vloc inside     42.668 Ry
atom: Maximum radius for 4*pi*r*r*local-pseudopot. charge    1.83678
atom: Maximum radius for r*vlocal+2*Zval:    1.58088
GHOST: No ghost state for L =  0
GHOST: No ghost state for L =  1
GHOST: No ghost state for L =  2

KBgen: Kleinman-Bylander projectors: 
   l= 0   rc=  1.704034   el= -1.009801   Ekb=  5.335044   kbcos=  0.316824
   l= 1   rc=  1.704034   el= -0.388707   Ekb= -3.785862   kbcos= -0.366464
   l= 2   rc=  1.791422   el=  0.001971   Ekb= -0.970471   kbcos= -0.009212

KBgen: Total number of  Kleinman-Bylander projectors:    9
atom: -------------------------------------------------------------------------

atom: SANKEY-TYPE ORBITALS:

SPLIT: Orbitals with angular momentum L= 0

SPLIT: Basis orbitals for state 2s

SPLIT: PAO cut-off radius determined from an
SPLIT: energy shift=  0.007350 Ry

   izeta = 1
                 lambda =    1.000000
                     rc =    4.632753
                 energy =   -1.002270
                kinetic =    0.855760
    potential(screened) =   -1.858031
       potential(ionic) =   -5.417575

SPLIT: Orbitals with angular momentum L= 1

SPLIT: Basis orbitals for state 2p

SPLIT: PAO cut-off radius determined from an
SPLIT: energy shift=  0.007350 Ry

   izeta = 1
                 lambda =    1.000000
                     rc =    5.658549
                 energy =   -0.381140
                kinetic =    2.399701
    potential(screened) =   -2.780841
       potential(ionic) =   -6.206085
atom: Total number of Sankey-type orbitals:  4

atm_pop: Valence configuration (for local Pseudopot. screening):
 2s( 2.00)                                                            
 2p( 2.00)                                                            
Vna: chval, zval:    4.00000   4.00000

Vna:  Cut-off radius for the neutral-atom potential:   5.658549
comcore: Pseudo-core radius Rcore=  1.791422

atom: _________________________________________________________________________

prinput: Basis input ----------------------------------------------------------

PAO.BasisType split     

%block ChemicalSpeciesLabel
    1    6 C                       # Species index, atomic number, species label
%endblock ChemicalSpeciesLabel

%block PAO.Basis                 # Define Basis set
C                     2                    # Species label, number of l-shells
 n=2   0   1                         # n, l, Nzeta 
   4.633   
   1.000   
 n=2   1   1                         # n, l, Nzeta 
   5.659   
   1.000   
%endblock PAO.Basis

prinput: ----------------------------------------------------------------------

coor:   Atomic-coordinates input format  =     Cartesian coordinates
coor:                                          (in Angstroms)

siesta: Atomic coordinates (Bohr) and species
siesta:      0.00000   0.00000   0.00000  1        1
siesta:      2.31572   1.33698   0.00000  1        2

siesta: System type = slab      

initatomlists: Number of atoms, orbitals, and projectors:      2     8    18

siesta: ******************** Simulation parameters ****************************
siesta:
siesta: The following are some of the parameters of the simulation.
siesta: A complete list of the parameters used, including default values,
siesta: can be found in file out.fdf
siesta:
redata: Non-Collinear-spin run           =     F
redata: SpinPolarized (Up/Down) run      =     F
redata: Number of spin components        =     1
redata: Long output                      =     F
redata: Number of Atomic Species         =        1
redata: Charge density info will appear in .RHO file
redata: Write Mulliken Pop.              =     NO
redata: Mesh Cutoff                      =   100.0000  Ry
redata: Net charge of the system         =     0.0000 |e|
redata: Max. number of SCF Iter          =      300
redata: SCF convergence failure will abort job
redata: Mixing is linear
redata: Mix DM in first SCF step ?       =     F
redata: Write Pulay info on disk?        =     F
redata: Discard 1st Pulay DM after  kick =     F
redata: New DM Mixing Weight             =     0.1000
redata: New DM Occupancy tolerance       = 0.000000000001
redata: No kicks to SCF
redata: DM Mixing Weight for Kicks       =     0.5000
redata: DM Tolerance for SCF             =     0.000100
redata: Require Energy convergence for SCF =     F
redata: DM Energy tolerance for SCF      =     0.000100 eV
redata: Require Harris convergence for SCF =     F
redata: DM Harris energy tolerance for SCF =     0.000100 eV
redata: Using Saved Data (generic)   =     F
redata: Use continuation files for DM    =     T
redata: Neglect nonoverlap interactions  =     F
redata: Method of Calculation            =     Diagonalization
redata: Divide and Conquer               =     T
redata: Electronic Temperature           =     0.0019  Ry
redata: Fix the spin of the system       =     F
redata: Dynamics option                  =     Verlet MD run
redata: Initial MD time step             =        1
redata:   Final MD time step             =        1
redata: Length of MD time step           =     1.0000  fs
redata: Initial Temperature of MD run    =     0.0000  K
redata: Perform a MD quench              =     F
redata: ***********************************************************************
Total number of electrons:     8.000000
Total ionic charge:     8.000000

* ProcessorY, Blocksize:    1   8

 Kpoints in:        20000 . Kpoints trimmed:        20000

siesta: k-grid: Number of k-points = 20000
siesta: k-grid: Cutoff (effective) =     7.500 Ang
siesta: k-grid: Supercell and displacements
siesta: k-grid:  200   0   0      0.500
siesta: k-grid:    0 200   0      0.500
siesta: k-grid:    0   0   1      0.000
Naive supercell factors:     7    7    2

superc: Internal auxiliary supercell:     7 x     7 x     2  =      98
superc: Number of atoms, orbitals, and projectors:    196    784   1764

* Maximum dynamic memory allocated =     4 MB

siesta:                 ==============================
                            Begin MD step =      1
                        ==============================

superc: Internal auxiliary supercell:     7 x     7 x     2  =      98
superc: Number of atoms, orbitals, and projectors:    196    784   1764

outcell: Unit cell vectors (Ang):
        2.450852    0.000000    0.000000
        1.225426    2.122500    0.000000
        0.000000    0.000000   15.000000

outcell: Cell vector modules (Ang)   :    2.450852    2.450852   15.000000
outcell: Cell angles (23,13,12) (deg):     90.0000     90.0000     60.0000
outcell: Cell volume (Ang**3)        :     78.0290
New_DM. Step:     1
Initializing Density Matrix...

iodm: Reading Density Matrix from files

InitMesh: MESH =    16 x    16 x    96 =       24576
InitMesh: Mesh cutoff (required, used) =   100.000   113.204 Ry

* Maximum dynamic memory allocated =    13 MB

stepf: Fermi-Dirac step function

siesta: Program's energy decomposition (eV):
siesta: Ebs     =      -136.309856
siesta: Eions   =       511.194752
siesta: Ena     =       110.246253
siesta: Ekin    =       202.970488
siesta: Enl     =       -20.160698
siesta: DEna    =         4.581298
siesta: DUscf   =         0.202882
siesta: DUext   =         0.000000
siesta: Exc     =      -108.431668
siesta: eta*DQ  =         0.000000
siesta: Emadel  =         0.000000
siesta: Emeta   =         0.000000
siesta: Emolmec =         0.000000
siesta: Ekinion =         0.000000
siesta: Eharris =      -321.786203
siesta: Etot    =      -321.786197
siesta: FreeEng =      -321.786197

siesta: iscf   Eharris(eV)      E_KS(eV)   FreeEng(eV)   dDmax  Ef(eV)
siesta:    1     -321.7862     -321.7862     -321.7862  0.0001 -7.3505
timer: Routine,Calls,Time,% = IterSCF        1       3.636  36.57
elaps: Routine,Calls,Wall,% = IterSCF        1       3.636  36.57

siesta: E_KS(eV) =             -321.7862

siesta: E_KS - E_eggbox =      -321.7862

siesta: Atomic forces (eV/Ang):
----------------------------------------
   Tot    0.001701    0.000982    0.000000
----------------------------------------
   Max    0.005822
   Res    0.003362    sqrt( Sum f_i^2 / 3N )
----------------------------------------
   Max    0.005822    constrained

Stress-tensor-Voigt (kbar):     -100.02      -99.77        0.15       -0.22        0.00        0.00
(Free)E + p*V (eV/cell)     -318.5454
Target enthalpy (eV/cell)     -321.7862

siesta: Stress tensor (static) (eV/Ang**3):
        -0.062424   -0.000134    0.000000
        -0.000134   -0.062269    0.000000
         0.000000    0.000000    0.000093

siesta: Pressure (static):         66.54402676  kBar

siesta: Stress tensor (total) (eV/Ang**3):
        -0.062424   -0.000134    0.000000
        -0.000134   -0.062269    0.000000
         0.000000    0.000000    0.000093

siesta: Pressure (total):         66.54402676  kBar

siesta: Temp_ion =       0.000 K

* Maximum dynamic memory allocated =    13 MB

siesta: Program's energy decomposition (eV):
siesta: Ebs     =      -136.309856
siesta: Eions   =       511.194752
siesta: Ena     =       110.246253
siesta: Ekin    =       202.972555
siesta: Enl     =       -20.162376
siesta: DEna    =         4.580975
siesta: DUscf   =         0.202884
siesta: DUext   =         0.000000
siesta: Exc     =      -108.431742
siesta: eta*DQ  =         0.000000
siesta: Emadel  =         0.000000
siesta: Emeta   =         0.000000
siesta: Emolmec =         0.000000
siesta: Ekinion =         0.000000
siesta: Eharris =      -321.786203
siesta: Etot    =      -321.786203
siesta: FreeEng =      -321.786214

siesta: Final energy (eV):
siesta:  Band Struct. =    -136.309856
siesta:       Kinetic =     202.972555
siesta:       Hartree =    1071.147489
siesta:    Ext. field =       0.000000
siesta:   Exch.-corr. =    -108.431742
siesta:  Ion-electron =   -2360.116387
siesta:       Ion-ion =     872.641883
siesta:       Ekinion =       0.000000
siesta:         Total =    -321.786203

siesta: Stress tensor (static) (eV/Ang**3):
siesta:    -0.062424   -0.000134    0.000000
siesta:    -0.000134   -0.062269    0.000000
siesta:     0.000000    0.000000    0.000093

siesta: Cell volume =         78.028997 Ang**3

siesta: Pressure (static):
siesta:                Solid            Molecule  Units
siesta:           0.00045235          0.00045197  Ry/Bohr**3
siesta:           0.04153307          0.04149837  eV/Ang**3
siesta:          66.54402676         66.48843640  kBar
(Free)E+ p_basis*V_orbitals  =        -321.351360
(Free)Eharris+ p_basis*V_orbitals  =        -321.351367

siesta: Electric dipole (a.u.)  =    0.000000    0.000000    0.000000
siesta: Electric dipole (Debye) =    0.000000    0.000000    0.000000

* Maximum dynamic memory allocated : Node    0 =    13 MB

* Maximum memory occured during redistribXZ                   

timer: CPU execution times:
timer:  Routine       Calls   Time/call    Tot.time        %
timer:  siesta            1      11.044      11.044   100.00
timer:  Setup             1       6.300       6.300    57.04
timer:  bands             1       0.000       0.000     0.00
timer:  writewave         1       0.001       0.001     0.01
timer:  KSV_init          1       0.000       0.000     0.00
timer:  IterMD            1       3.729       3.729    33.77
timer:  hsparse           1       0.000       0.000     0.00
timer:  overlap           1       0.005       0.005     0.05
timer:  IterSCF           1       3.636       3.636    32.92
timer:  kinefsm           2       0.002       0.004     0.04
timer:  nlefsm            2       0.026       0.053     0.48
timer:  DHSCF             2       0.080       0.160     1.44
timer:  DHSCF1            1       0.014       0.014     0.12
timer:  DHSCF2            1       0.050       0.050     0.45
timer:  REORD            18       0.000       0.001     0.01
timer:  POISON            3       0.004       0.013     0.12
timer:  DHSCF3            2       0.028       0.056     0.51
timer:  rhoofd            2       0.009       0.017     0.16
timer:  cellXC            2       0.008       0.016     0.15
timer:  vmat              2       0.006       0.011     0.10
timer:  MolMec            2       0.000       0.000     0.00
timer:  diagon            1       3.502       3.502    31.71
timer:  cdiag         40000       0.000       1.170    10.60
timer:  cdiag1        40000       0.000       0.101     0.92
timer:  cdiag2        40000       0.000       0.154     1.40
timer:  cdiag3        40000       0.000       0.302     2.74
timer:  cdiag4        40000       0.000       0.101     0.92
timer:  DHSCF4            1       0.039       0.039     0.35
timer:  dfscf             1       0.028       0.028     0.25
timer:  overfsm           1       0.000       0.000     0.00
timer:  optical           1       0.000       0.000     0.00
  

elaps: ELAPSED times:
elaps:  Routine       Calls   Time/call    Tot.time        %
elaps:  siesta            1      11.044      11.044   100.00
elaps:  Setup             1       6.300       6.300    57.04
elaps:  bands             1       0.000       0.000     0.00
elaps:  writewave         1       0.000       0.000     0.00
elaps:  KSV_init          1       0.000       0.000     0.00
elaps:  IterMD            1       3.729       3.729    33.77
elaps:  hsparse           1       0.000       0.000     0.00
elaps:  overlap           1       0.005       0.005     0.05
elaps:  IterSCF           1       3.636       3.636    32.92
elaps:  kinefsm           2       0.002       0.004     0.04
elaps:  nlefsm            2       0.026       0.053     0.48
elaps:  DHSCF             2       0.080       0.159     1.44
elaps:  DHSCF1            1       0.014       0.014     0.12
elaps:  DHSCF2            1       0.050       0.050     0.45
elaps:  REORD            18       0.000       0.000     0.00
elaps:  POISON            3       0.004       0.013     0.12
elaps:  DHSCF3            2       0.028       0.056     0.51
elaps:  rhoofd            2       0.009       0.017     0.16
elaps:  cellXC            2       0.008       0.016     0.15
elaps:  vmat              2       0.006       0.011     0.10
elaps:  MolMec            2       0.000       0.000     0.00
elaps:  diagon            1       3.502       3.502    31.71
elaps:  cdiag         40000       0.000       1.168    10.58
elaps:  cdiag1        40000       0.000       0.097     0.88
elaps:  cdiag2        40000       0.000       0.152     1.37
elaps:  cdiag3        40000       0.000       0.305     2.76
elaps:  cdiag4        40000       0.000       0.097     0.88
elaps:  DHSCF4            1       0.039       0.039     0.35
elaps:  dfscf             1       0.028       0.028     0.25
elaps:  overfsm           1       0.000       0.000     0.00
elaps:  optical           1       0.000       0.000     0.00
  
>> End of run:  17-JUN-2019  11:59:13
