SystemName     siesta                                                                          
SystemLabel     siesta                                                                          
MPI.Nprocs.SIESTA        20     # default value
SpinPolarized              F     # default value
NonCollinearSpin              F     # default value
SpinOrbit              F     # default value
#:block? SpinPolarized              F
#:defined? SpinPolarized              F
#:block? NonCollinearSpin              F
#:defined? NonCollinearSpin              F
#:block? SpinOrbit              F
#:defined? SpinOrbit              F
Spin     none                                 # default value
TimeReversalSymmetry              T     # default value
DebugObjects.Node         0     # default value
DebugObjects              F     # default value
XML.Write              F     # default value
timer_report_threshold          0.000000000         # default value
UseParallelTimer              T     # default value
UseTreeTimer              F     # default value
alloc_report_level         0     # default value
alloc_report_threshold          0.000000000         # default value
xc.functional     GGA                                                                             
xc.authors     PBE                                                                             
MM.Cutoff          30.00000000     Bohr     # default value
MM.UnitsEnergy     eV     # default value
MM.UnitsDistance     Ang     # default value
WriteIonPlotFiles              F     # default value
Atom.Debug.KB.Generation              F     # default value
KB.New.Reference.Orbitals              F     # default value
user-basis              F     # default value
user-basis-netcdf              F     # default value
#:block? LDAU.proj              F
#:defined? LDAU.proj              F
Number_of_species              2
%block Chemical_species_label
  1 14 Si
  2 8 O
%endblock Chemical_species_label
ReparametrizePseudos              F     # default value
Restricted.Radial.Grid              T     # default value
Rmax.Radial.Grid          0.000000000         # default value
PAO.BasisSize     SZ                                                                              
PAO.BasisType     split          # default value
PAO.SoftDefault              F     # default value
PAO.SoftInnerRadius         0.9000000000         # default value
PAO.SoftPotential          40.00000000         # default value
PAO.SplitNorm         0.1500000000         # default value
PAO.SplitNormH         -1.000000000         # default value
LDAU.ProjectorGenerationMethod         2     # default value
LDAU.EnergyShift         0.5000000000E-01 Ry     # default value
LDAU.CutoffNorm         0.9000000000         # default value
PAO.SoftDefault              F     # default value
PAO.SoftInnerRadius         0.9000000000         # default value
PAO.SoftPotential          40.00000000         # default value
LDAU.ThresholdTol         0.1000000000E-01     # default value
LDAU.PopTol         0.1000000000E-02     # default value
LDAU.PotentialShift              F     # default value
LDAU.FirstIteration              F     # default value
FilterCutoff          0.000000000     Ry     # default value
FilterTol          0.000000000     Ry     # default value
KB.Rmax          6.000000000     Bohr     # default value
PAO.EnergyShift         0.2000000000E-01 Ry     # default value
PAO.SplitTailNorm              F     # default value
PAO.FixSplitTable              F     # default value
PAO.NewSplitCode              F     # default value
PAO.Filter              F     # default value
PAO.Filter              F     # default value
PAO.OldStylePolorbs              T     # default value
PAO.SplitTailNorm              F     # default value
PAO.FixSplitTable              F     # default value
PAO.NewSplitCode              F     # default value
Vna.Filter              F     # default value
PCC.Filter              F     # default value
FilterCutoff          0.000000000     Ry     # default value
FilterTol          0.000000000     Ry     # default value
KB.Rmax          6.000000000     Bohr     # default value
PAO.EnergyShift         0.2000000000E-01 Ry     # default value
PAO.SplitTailNorm              F     # default value
PAO.FixSplitTable              F     # default value
PAO.NewSplitCode              F     # default value
PAO.Filter              F     # default value
PAO.Filter              F     # default value
PAO.OldStylePolorbs              T     # default value
PAO.SplitTailNorm              F     # default value
PAO.FixSplitTable              F     # default value
PAO.NewSplitCode              F     # default value
Vna.Filter              F     # default value
PCC.Filter              F     # default value
PAO.BasisType     split          # default value
Atom-Setup-Only              F     # default value
UseStructFile              F     # default value
MD.UseStructFile              F     # default value
LatticeConstant          1.889726878           Bohr
# above item originally: LatticeConstant          1.000000000     Ang       
#:block? LatticeParameters              F
#:block? LatticeVectors              T
%block LatticeVectors
     7.840400000     0.000000000     0.000000000
     0.000000000     7.840400000     0.000000000
     0.000000000     0.000000000    89.273125000
%endblock LatticeVectors
AtomicCoordinatesFormat     Ang                                                                             
NumberOfAtoms            218
ZM.UnitsLength     Bohr           # default value
ZM.UnitsAngle     rad            # default value
ZM.ForceTolLength         0.1555740000E-02 Ry/Bohr     # default value
ZM.ForceTolAngle         0.3565490000E-02 Ry/rad     # default value
ZM.MaxDisplLength         0.2000000000     Bohr     # default value
ZM.MaxDisplAngle         0.3000000000E-02 rad     # default value
ZM.CalcAllForces              F     # default value
%block AtomicCoordinatesAndAtomicSpecies
      0.961344349     1.028758725     9.999453702    1    1
      4.881543349     4.948958725     9.999453702    1    2
      4.881543349     1.028758725     9.999453702    1    3
      0.961344349     4.948958725     9.999453702    1    4
      2.921443349     1.028758725    11.385453702    1    5
      6.841643349     4.948958725    11.385453702    1    6
      6.841643349     1.028758725    11.385453702    1    7
      2.921443349     4.948958725    11.385453702    1    8
      6.841643349     2.988857725    12.771453702    1    9
      2.921443349     6.909058725    12.771453702    1   10
      2.921443349     2.988858725    12.771453702    1   11
      6.841643349     6.909058725    12.771453702    1   12
      0.961344349     2.988857725    14.157453702    1   13
      4.881543349     6.909058725    14.157453702    1   14
      4.881543349     2.988858725    14.157453702    1   15
      0.961344349     6.909058725    14.157453702    1   16
      0.961344349     1.028758725    15.543453702    1   17
      4.881543349     4.948958725    15.543453702    1   18
      4.881543349     1.028758725    15.543453702    1   19
      0.961344349     4.948958725    15.543453702    1   20
      2.921443349     1.028758725    16.929453702    1   21
      6.841643349     4.948958725    16.929453702    1   22
      6.841643349     1.028758725    16.929453702    1   23
      2.921443349     4.948958725    16.929453702    1   24
      6.841643349     2.988857725    18.315453702    1   25
      2.921443349     6.909058725    18.315453702    1   26
      2.921443349     2.988858725    18.315453702    1   27
      6.841643349     6.909058725    18.315453702    1   28
      0.961344349     2.988857725    19.701453702    1   29
      4.881543349     6.909058725    19.701453702    1   30
      4.881543349     2.988858725    19.701453702    1   31
      0.961344349     6.909058725    19.701453702    1   32
      0.961344349     1.028758725    21.087453702    1   33
      4.881543349     4.948958725    21.087453702    1   34
      4.881543349     1.028758725    21.087453702    1   35
      0.961344349     4.948958725    21.087453702    1   36
      2.921443349     1.028758725    22.473453702    1   37
      6.841643349     4.948958725    22.473453702    1   38
      6.841643349     1.028758725    22.473453702    1   39
      2.921443349     4.948958725    22.473453702    1   40
      6.841643349     2.988857725    23.859453702    1   41
      2.921443349     6.909058725    23.859453702    1   42
      2.921443349     2.988858725    23.859453702    1   43
      6.841643349     6.909058725    23.859453702    1   44
      4.882784349     2.988109725    25.245148702    1   45
      0.962584349     6.908309725    25.245148702    1   46
      0.961344349     2.988857725    25.245453702    1   47
      4.881543349     6.909058725    25.245453702    1   48
      0.966490349     1.030494725    26.641012702    1   49
      4.886690349     4.950694725    26.641012702    1   50
      4.889290349     1.031353725    26.641965702    1   51
      0.969090349     4.951552725    26.641965702    1   52
      2.929302349     1.040385725    28.033248702    1   53
      6.849503349     4.960586725    28.033248702    1   54
      6.850230349     1.038066725    28.041410702    1   55
      2.930029349     4.958266725    28.041410702    1   56
      6.857373349     3.006917725    29.431117702    1   57
      2.937172349     6.927117725    29.431117702    1   58
      2.933546349     2.996919725    29.435925702    1   59
      6.853746349     6.917118725    29.435925702    1   60
      4.899600349     3.010233725    30.826917702    1   61
      0.979401349     6.930433725    30.826917702    1   62
      0.974641349     3.011973725    30.834668702    1   63
      4.894841349     6.932172725    30.834668702    1   64
      0.966341349     1.050101725    32.227347702    1   65
      4.886541349     4.970300725    32.227347702    1   66
      4.918920349     1.058617725    32.230096702    1   67
      0.998719349     4.978817725    32.230096702    1   68
      2.942434349     1.071903725    33.589903702    1   69
      6.862635349     4.992103725    33.589903702    1   70
      6.866792349     1.059569725    33.657853702    1   71
      2.946593349     4.979768725    33.657853702    1   72
      6.880515349     3.067538725    35.010018702    1   73
      2.960315349     6.987738725    35.010018702    1   74
      2.939038349     2.990378725    35.033180702    1   75
      6.859238349     6.910577725    35.033180702    1   76
      4.924970349     3.035516725    36.403062702    1   77
      1.004771349     6.955716725    36.403062702    1   78
      0.978478349     3.044411725    36.450606702    1   79
      4.898678349     6.964610725    36.450606702    1   80
      0.675717349     1.061363725    37.768367702    1   81
      4.595917349     4.981562725    37.768367702    1   82
      5.255938349     1.103770725    37.780383702    1   83
      1.335738349     5.023969725    37.780383702    1   84
      6.886506349     1.031465725    38.295017702    2   85
      2.966305349     4.951665725    38.295017702    2   86
      1.615347349     1.040376725    39.172695702    2   87
      5.535548349     4.960576725    39.172695702    2   88
      4.351232349     1.268701725    39.207857702    2   89
      0.431031349     5.188900725    39.207857702    2   90
      2.980568349     1.020192725    40.142409702    1   91
      6.900768349     4.940391725    40.142409702    1   92
      7.045304349     3.436547725    40.879639702    2   93
      3.125104349     7.356746725    40.879639702    2   94
      2.813357349     2.240979725    41.281205702    2   95
      6.733558349     6.161180725    41.281205702    2   96
      7.035790349     0.942873725    41.973340702    2   97
      3.115591349     4.863073725    41.973340702    2   98
      6.687420349     2.569877725    42.276714702    1   99
      2.767220349     6.490077725    42.276714702    1  100
      3.432428349     3.271187725    42.458620702    1  101
      7.352628349     7.191387725    42.458620702    1  102
      5.071498349     2.905937725    42.671652702    2  103
      1.151299349     6.826138725    42.671652702    2  104
     -0.157377651     3.080859725    43.536913702    2  105
      3.762822349     7.001058725    43.536913702    2  106
      2.609440349     3.015506725    43.909794702    2  107
      6.529640349     6.935707725    43.909794702    2  108
      1.094850349     2.868393725    44.641752702    1  109
      5.015050349     6.788594725    44.641752702    1  110
      1.029134349     1.325129725    45.327040702    2  111
      4.949333349     5.245329725    45.327040702    2  112
      4.811372349     0.147238725    45.804680702    2  113
      0.891173349     4.067438725    45.804680702    2  114
      5.103392349     2.777681725    46.539847702    2  115
      1.183192349     6.697880725    46.539847702    2  116
      0.792012349     0.489271725    46.775510702    1  117
      4.712211349     4.409470725    46.775510702    1  118
      5.403434349     1.171230725    47.003558702    1  119
      1.483235349     5.091430725    47.003558702    1  120
      7.031104349     0.784392725    47.255844702    2  121
      3.110904349     4.704593725    47.255844702    2  122
      1.817293349     1.102466725    47.961645702    2  123
      5.737493349     5.022665725    47.961645702    2  124
      4.553204349     0.900964725    48.431232702    2  125
      0.633003349     4.821164725    48.431232702    2  126
      3.020116349     0.959221725    49.126437702    1  127
      6.940316349     4.879422725    49.126437702    1  128
      6.721473349     3.474737725    50.021458702    2  129
      2.801273349     7.394937725    50.021458702    2  130
      2.910537349     2.295334725    50.128806702    2  131
      6.830737349     6.215533725    50.128806702    2  132
      6.836481349     0.964402725    51.003145702    2  133
      2.916281349     4.884602725    51.003145702    2  134
      6.802062349     2.605213725    51.480655702    1  135
      2.881862349     6.525413725    51.480655702    1  136
      2.902016349     3.253625725    51.521687702    1  137
      6.822216349     7.173824725    51.521687702    1  138
      0.921560349     2.958495725    52.837559702    1  139
      4.841759349     6.878695725    52.837559702    1  140
      4.865226349     2.946459725    52.859546702    1  141
      0.945026349     6.866658725    52.859546702    1  142
      0.972765349     0.999142725    54.249770702    1  143
      4.892965349     4.919343725    54.249770702    1  144
      4.820561349     0.990175725    54.260878702    1  145
      0.900361349     4.910374725    54.260878702    1  146
      6.821297349     0.997434725    55.623051702    1  147
      2.901096349     4.917634725    55.623051702    1  148
      2.895676349     1.006034725    55.685751702    1  149
      6.815876349     4.926234725    55.685751702    1  150
      6.822725349     2.948724725    57.048398702    1  151
      2.902525349     6.868925725    57.048398702    1  152
      2.906080349     2.979506725    57.055631702    1  153
      6.826279349     6.899706725    57.055631702    1  154
      0.944419349     2.971300725    58.449045702    1  155
      4.864619349     6.891501725    58.449045702    1  156
      4.868024349     2.968739725    58.451271702    1  157
      0.947825349     6.888938725    58.451271702    1  158
      0.956648349     1.012659725    59.846850702    1  159
      4.876847349     4.932860725    59.846850702    1  160
      4.867740349     1.010956725    59.849923702    1  161
      0.947541349     4.931157725    59.849923702    1  162
      6.834983349     1.017948725    61.241501702    1  163
      2.914784349     4.938148725    61.241501702    1  164
      2.913248349     1.019613725    61.248757702    1  165
      6.833449349     4.939813725    61.248757702    1  166
      6.840300349     2.979944725    62.640578702    1  167
      2.920100349     6.900143725    62.640578702    1  168
      2.920329349     2.982316725    62.642064702    1  169
      6.840529349     6.902516725    62.642064702    1  170
      0.960000349     2.979943725    64.026577702    1  171
      4.880199349     6.900143725    64.026577702    1  172
      4.880199349     2.979944725    64.026577702    1  173
      0.960000349     6.900143725    64.026577702    1  174
      0.960000349     1.019844725    65.412578702    1  175
      4.880199349     4.940043725    65.412578702    1  176
      4.880199349     1.019844725    65.412578702    1  177
      0.960000349     4.940043725    65.412578702    1  178
      2.920100349     1.019844725    66.798578702    1  179
      6.840300349     4.940043725    66.798578702    1  180
      6.840300349     1.019844725    66.798578702    1  181
      2.920100349     4.940043725    66.798578702    1  182
      6.840300349     2.979943725    68.184577702    1  183
      2.920100349     6.900143725    68.184577702    1  184
      2.920100349     2.979944725    68.184577702    1  185
      6.840300349     6.900143725    68.184577702    1  186
      0.960000349     2.979943725    69.570578702    1  187
      4.880199349     6.900143725    69.570578702    1  188
      4.880199349     2.979944725    69.570578702    1  189
      0.960000349     6.900143725    69.570578702    1  190
      0.960000349     1.019844725    70.956578702    1  191
      4.880199349     4.940043725    70.956578702    1  192
      4.880199349     1.019844725    70.956578702    1  193
      0.960000349     4.940043725    70.956578702    1  194
      2.920100349     1.019844725    72.342578702    1  195
      6.840300349     4.940043725    72.342578702    1  196
      6.840300349     1.019844725    72.342578702    1  197
      2.920100349     4.940043725    72.342578702    1  198
      6.840300349     2.979943725    73.728578702    1  199
      2.920100349     6.900143725    73.728578702    1  200
      2.920100349     2.979944725    73.728578702    1  201
      6.840300349     6.900143725    73.728578702    1  202
      0.960000349     2.979943725    75.114578702    1  203
      4.880199349     6.900143725    75.114578702    1  204
      4.880199349     2.979944725    75.114578702    1  205
      0.960000349     6.900143725    75.114578702    1  206
      0.960000349     1.019844725    76.500578702    1  207
      4.880199349     4.940043725    76.500578702    1  208
      4.880199349     1.019844725    76.500578702    1  209
      0.960000349     4.940043725    76.500578702    1  210
      2.920100349     1.019844725    77.886578702    1  211
      6.840300349     4.940043725    77.886578702    1  212
      6.840300349     1.019844725    77.886578702    1  213
      2.920100349     4.940043725    77.886578702    1  214
      6.840300349     2.979943725    79.272578702    1  215
      2.920100349     6.900143725    79.272578702    1  216
      2.920100349     2.979944725    79.272578702    1  217
      6.840300349     6.900143725    79.272578702    1  218
%endblock AtomicCoordinatesAndAtomicSpecies
MD.UseSaveXV              F     # default value
MD.UseSaveZM              F     # default value
WriteCoorInitial              T     # default value
MD.TypeOfRun     none     # default value
MD.TypeOfRun     none     # default value
MaxBondDistance          6.000000000     Bohr     # default value
LatticeConstant          1.889726878           Bohr
# above item originally: LatticeConstant          1.000000000     Ang       
Output-Structure-Only              F     # default value
WriteCoorXmol              F     # default value
#:physical? MaxWalltime              F
MaxWalltime         0.1797693135+309     # default value
#:physical? MaxWalltime.Slack              F
MaxWalltime.Slack          5.000000000         # default value
HSetupOnly              F     # default value
LongOutput              F     # default value
WriteDenchar              F     # default value
WriteMullikenPop         0     # default value
WriteOrbMom              F     # default value
WriteHirshfeldPop              F     # default value
WriteVoronoiPop              F     # default value
PartialChargesAtEveryGeometry              F     # default value
PartialChargesAtEveryScfStep              F     # default value
Compat.Matel.NRTAB              F     # default value
MeshCutoff          100.0000000             Ry
# above item originally: MeshCutoff          100.0000000     Ry        
NetCharge          0.000000000         # default value
MinSCFIterations         0     # default value
MaxSCFIterations            500
SCF.MustConverge              T
#:block? TS.MixH              F
#:defined? TS.MixH              F
#:block? MixHamiltonian              F
#:defined? MixHamiltonian              F
#:block? MixCharge              F
#:defined? MixCharge              F
TS.MixH              T     # default value
MixHamiltonian              T     # default value
MixCharge              F     # default value
SCF.Mix     Hamiltonian     # default value
Compat-pre-v4-DM-H              F     # default value
SCF.MixAfterConvergence              F     # default value
SCF.Recompute-H-After-Scf              F     # default value
DM.NumberPulay             10
DM.NumberBroyden         0     # default value
DM.FIRE.Mixing              F     # default value
DM.MixSCF1              T     # default value
SCF.Mix.First              T     # default value
DM.PulayOnFile              F
DM.MixingWeight         0.1000000000E-01
DM.OccupancyTolerance         0.1000000000E-11     # default value
DM.NumberKick         0     # default value
DM.KickMixingWeight         0.5000000000         # default value
DM.RequireHarrisConvergence              F     # default value
SCF.Harris.Converge              F     # default value
DM.HarrisTolerance         0.7349806700E-05 Ry     # default value
SCF.Harris.Tolerance         0.7349806700E-05 Ry     # default value
SCF.DM.Converge              T     # default value
DM.Tolerance         0.1000000000E-03
SCF.DM.Tolerance         0.1000000000E-03     # default value
SCF.EDM.Converge              F     # default value
SCF.EDM.Tolerance         0.7349806700E-04 Ry     # default value
SCF.H.Converge              T     # default value
SCF.H.Tolerance         0.7349806700E-04 Ry     # default value
DM.RequireEnergyConvergence              F     # default value
SCF.FreeE.Converge              F     # default value
DM.EnergyTolerance         0.7349806700E-05 Ry     # default value
SCF.FreeE.Tolerance         0.7349806700E-05 Ry     # default value
MonitorForcesInSCF              F     # default value
SCF.MonitorForces              F     # default value
UseSaveData              F     # default value
DM.UseSaveDM              T
NeglNonOverlapInt              F
SolutionMethod     transiesta                                                                      
ElectronicTemperature         0.1900069269E-02         Ry
# above item originally: ElectronicTemperature          300.0000000     K         
FixSpin              F     # default value
Spin.Fix              F     # default value
ON.MaxNumIter      1000     # default value
ON.etol         0.1000000000E-07     # default value
ON.eta          0.000000000     Ry     # default value
ON.eta_alpha          0.000000000     Ry     # default value
ON.eta_beta          0.000000000     Ry     # default value
On.RcLWF          9.500000000     Bohr     # default value
ON.UseSaveLWF              F     # default value
ON.functional     kim     # default value
ON.ChemicalPotentialUse              F     # default value
ON.ChemicalPotential              F     # default value
ON.ChemicalPotentialRc          9.500000000     Bohr     # default value
ON.ChemicalPotentialTemperature         0.5000000000E-01 Ry     # default value
ON.ChemicalPotentialOrder       100     # default value
MD.VariableCell              F     # default value
compat-pre-v4-dynamics              F     # default value
MD.TypeOfRun     cg     # default value
MD.UseSaveCG              F     # default value
Optim.Broyden              F     # default value
#:block? Optim.Broyden              F
#:defined? Optim.Broyden              F
MD.NumCGsteps         0     # default value
MD.Steps         0     # default value
MD.MaxCGDispl         0.2000000000     Bohr     # default value
MD.MaxDispl         0.2000000000     Bohr     # default value
MD.MaxForceTol         0.1555740000E-02 Ry/Bohr     # default value
MD.MaxStressTol         0.6797730000E-04 Ry/Bohr**3     # default value
GeometryMustConverge              F     # default value
MD.InitialTimeStep         1     # default value
#:block? MD.Steps              F
#:defined? MD.Steps              F
MD.FinalTimeStep         1     # default value
MD.LengthTimeStep          1.000000000     fs     # default value
MD.Quench              F     # default value
MD.FireQuench              F     # default value
MD.InitialTemperature          0.000000000     K     # default value
MD.TargetTemperature          0.000000000     K     # default value
MD.TargetPressure          0.000000000     Ry/Bohr**3     # default value
MD.NoseMass          100.0000000     Ry*fs**2     # default value
MD.ParrinelloRahmanMass          100.0000000     Ry*fs**2     # default value
MD.AnnealOption     TemperatureAndPressure     # default value
MD.TauRelax          100.0000000     fs     # default value
MD.BulkModulus         0.6797730000E-02 Ry/Bohr**3     # default value
MD.FCDispl         0.4000000000E-01 Bohr     # default value
MD.FCfirst         1     # default value
MD.FClast       218     # default value
UseSpatialDecomposition              F     # default value
UseDomainDecomposition              F     # default value
SCF.Mix.Spin     all     # default value
Mixer.Debug              F     # default value
Mixer.Debug.MPI              F     # default value
DM.NumberPulay             10
DM.NumberBroyden         0     # default value
DM.MixingWeight         0.1000000000E-01
DM.NumberKick         0     # default value
DM.KickMixingWeight         0.5000000000         # default value
SCF.LinearMixingAfterPulay              F     # default value
SCF.MixingWeightAfterPulay         0.1000000000E-01     # default value
SCF.Mixer.History        10     # default value
SCF.Mixer.Weight         0.1000000000E-01     # default value
SCF.Mixer.Kick         0     # default value
SCF.Mixer.Kick.Weight         0.5000000000         # default value
SCF.Mixer.Restart         0     # default value
SCF.Mixer.Restart.Save         1     # default value
SCF.Mixer.Method     Pulay     # default value
SCF.Mixer.Variant     original     # default value
SCF.Mixer.Linear.After        -1     # default value
SCF.Mixer.Linear.After.Weight         0.1000000000E-01     # default value
#:block? ChargeGeometries              F
#:defined? ChargeGeometries              F
#:block? ChargeGeometries              F
#:defined? ChargeGeometries              F
Harris_functional              F     # default value
ForceAuxCell              F     # default value
#:block? Optim.Broyden.History.Steps              F
#:defined? Optim.Broyden.History.Steps              F
#:block? Optim.Broyden.Cycle.On.Maxit              F
#:defined? Optim.Broyden.Cycle.On.Maxit              F
#:block? Optim.Broyden.Variable.Weight              F
#:defined? Optim.Broyden.Variable.Weight              F
#:block? Optim.Broyden.Debug              F
#:defined? Optim.Broyden.Debug              F
#:block? Optim.Broyden.Initial.Inverse.Jacobian              F
#:defined? Optim.Broyden.Initial.Inverse.Jacobian              F
WriteKpoints              F     # default value
WriteForces              F     # default value
WriteDM              T     # default value
WriteDM.End.Of.Cycle              T     # default value
WriteH              F     # default value
WriteH.End.Of.Cycle              F     # default value
WriteDM.NetCDF              F     # default value
WriteDM.History.NetCDF              F     # default value
WriteDMHS.NetCDF              F     # default value
WriteDMHS.History.NetCDF              F     # default value
SCF.Read.Charge.NetCDF              F     # default value
SCF.Read.Deformation.Charge.NetCDF              F     # default value
Write.TSHS.History              F     # default value
SaveInitialChargeDensity              F     # default value
AnalyzeChargeDensityOnly              F     # default value
UseNewDiagk              F     # default value
WriteBands              F     # default value
WriteKbands              F     # default value
WriteEigenvalues              F     # default value
WriteCoorStep              F     # default value
WriteMDhistory              F     # default value
WriteMDXmol              T     # default value
WriteOrbitalIndex              T     # default value
Write.Graphviz     none     # default value
WriteCoorStep              F     # default value
SaveHS              F     # default value
ReInitialiseDM              T     # default value
DM.AllowReuse              T     # default value
DM.AllowExtrapolation              T     # default value
DM.History.Depth         1     # default value
DM.NormalizationTolerance         0.1000000000E-04     # default value
DM.NormalizeDuringSCF              T     # default value
MullikenInSCF              F     # default value
SpinInSCF              F     # default value
WarningMinimumAtomicDistance          1.000000000     Bohr     # default value
BornCharge              F     # default value
ChangeKgridInMD              F     # default value
MD.RelaxCellOnly              F     # default value
MD.RemoveIntraMolecularPressure              F     # default value
COOP.Write              F     # default value
SaveRho              F     # default value
SaveDeltaRho              F     # default value
SaveRhoXC              F     # default value
SaveElectrostaticPotential              T
SaveNeutralAtomPotential              F     # default value
SaveTotalPotential              F     # default value
SaveIonicCharge              F     # default value
SaveBaderCharge              F     # default value
SaveTotalCharge              F     # default value
Siesta2Wannier90.WriteMmn              F     # default value
Siesta2Wannier90.WriteUnk              F     # default value
Siesta2Wannier90.WriteAmn              F     # default value
Siesta2Wannier90.WriteEig              F     # default value
#:block? Siesta2Wannier90.NumberOfBandsUp              F
#:defined? Siesta2Wannier90.NumberOfBandsUp              F
#:block? Siesta2Wannier90.NumberOfBandsDown              F
#:defined? Siesta2Wannier90.NumberOfBandsDown              F
#:block? Siesta2Wannier90.NumberOfBands              F
#:defined? Siesta2Wannier90.NumberOfBands              F
Siesta2Wannier90.NumberOfBandsUp         0     # default value
Siesta2Wannier90.NumberOfBandsDown         0     # default value
Siesta2Wannier90.NumberOfBands         0     # default value
CDF.Save              F     # default value
CDF.Compress         0     # default value
CDF.MPI              F     # default value
CDF.Read.Parallel              F     # default value
DM.AllowReuse              T     # default value
DM.AllowExtrapolation              T     # default value
DM.AllowExtrapolation              F     # default value
RcSpatial          0.000000000     Bohr     # default value
ProcessorGridX         1     # default value
ProcessorGridY         1     # default value
ProcessorGridZ         1     # default value
processorY         4     # default value
blocksize        24     # default value
NumberOfEigenStates       872     # default value
#:block? SpinSpiral              F
#:defined? SpinSpiral              F
TimeReversalSymmetryForKpoints              T     # default value
%block kgrid_Monkhorst_Pack
    3   0   0   0.0
    0   3   0   0.0
    0   0   1   0.0
%endblock kgrid_Monkhorst_Pack
Diag.ParallelOverK              F     # default value
Diag.ProcessorY         4     # default value
Diag.BlockSize        24     # default value
Diag.Use2D              T     # default value
Diag.UpperLower     lower     # default value
Diag.DivideAndConquer              T     # default value
Diag.NoExpert              F     # default value
Diag.Algorithm     Divide-and-Conquer     # default value
Diag.AbsTol         0.1000000000E-15     # default value
Diag.OrFac         0.1000000000E-05     # default value
Diag.Memory          1.000000000         # default value
#:block? ProjectedDensityOfStates              F
#:block? BandLines              F
#:defined? BandLines              F
#:block? BandPoints              F
#:defined? BandPoints              F
LongOutput              F     # default value
WriteWaveFunctions              F     # default value
#:block-line-count? MetaForce (iirrr)   0
#:block? TS.BufferAtomsLeft              F
#:defined? TS.BufferAtomsLeft              F
#:block? TS.BufferAtomsRight              F
#:defined? TS.BufferAtomsRight              F
#:list? TS.Atoms.Buffer              F
TS.HS.Save              F     # default value
TS.DE.Save              F     # default value
TS.onlyS              F     # default value
TS.S.Save              F     # default value
Mixer.Debug              F     # default value
Mixer.Debug.MPI              F     # default value
TS.SCF.DM.Tolerance         0.1000000000E-03     # default value
TS.SCF.H.Tolerance         0.7349806700E-04     # default value
TS.SCF.Mix.History.Keep         0     # default value
TS.SIESTA.Only              F     # default value
TS.SolutionMethod     BTD     # default value
SCF.Initialize     diagon     # default value
TS.SCF.Initialize     diagon                                                                                                                                                                                                       # default value
TS.BTD.Optimize     speed     # default value
TS.Analyze              F     # default value
TS.ChargeCorrection     none     # default value
TS.ChargeCorrection.Fermi.Tolerance         0.1000000000E-01     # default value
TS.ChargeCorrection.Factor         0.7500000000         # default value
TS.ChargeCorrection.Fermi.Max         0.1102471000     Ry     # default value
TS.Weight.k.Method     correlated     # default value
TS.Weight.Method     orb-orb     # default value
TS.Forces              F
TS.ElectronicTemperature         0.1900069269E-02 Ry     # default value
TS.Voltage          0.000000000             Ry
# above item originally: TS.Voltage          0.000000000     eV        
%block TS.ChemPots
   Left
   Right
%endblock TS.ChemPots
TS.Contours.Eq.Pole.N         8     # default value
TS.Contours.Eq.Pole         0.1837449711             Ry
# above item originally: TS.Contours.Eq.Pole          2.500000000     eV        
%block TS.ChemPots
   Left
   Right
%endblock TS.ChemPots
%block TS.ChemPot.Left
   mu V/2                    #UP  chem. pot.
   contour.eq
     begin
       c-Left
       t-Left
     end
 #:(Backspace to) |    end|
 #:(Backspace to) |      t-Left|
 #:(Backspace to) |      c-Left|
       c-Left
       t-Left
     end
%endblock TS.ChemPot.Left
TS.Contours.Eq.Pole         0.1837449711             Ry
# above item originally: TS.Contours.Eq.Pole          2.500000000     eV        
%block TS.ChemPot.Right
   mu -V/2                   #DOWN  chem. pot.
   contour.eq
     begin
       c-Right
       t-Right
     end
 #:(Backspace to) |    end|
 #:(Backspace to) |      t-Right|
 #:(Backspace to) |      c-Right|
       c-Right
       t-Right
     end
%endblock TS.ChemPot.Right
TS.Contours.Eq.Pole         0.1837449711             Ry
# above item originally: TS.Contours.Eq.Pole          2.500000000     eV        
#:block? TS.GFTitle              F
#:defined? TS.GFTitle              F
#:block? TS.HSFileLeft              F
#:defined? TS.HSFileLeft              F
#:block? TS.GFFileLeft              F
#:defined? TS.GFFileLeft              F
#:block? TS.NumUsedAtomsLeft              F
#:defined? TS.NumUsedAtomsLeft              F
#:block? TS.ReplicateA1Left              F
#:defined? TS.ReplicateA1Left              F
#:block? TS.ReplicateA2Left              F
#:defined? TS.ReplicateA2Left              F
#:block? TS.HSFileRight              F
#:defined? TS.HSFileRight              F
#:block? TS.GFFileRight              F
#:defined? TS.GFFileRight              F
#:block? TS.NumUsedAtomsRight              F
#:defined? TS.NumUsedAtomsRight              F
#:block? TS.ReplicateA1Right              F
#:defined? TS.ReplicateA1Right              F
#:block? TS.ReplicateA2Right              F
#:defined? TS.ReplicateA2Right              F
#:block? TS.UpdateDMCROnly              F
#:defined? TS.UpdateDMCROnly              F
#:block? TS.UseBulk              F
#:defined? TS.UseBulk              F
#:block? TS.CalcGF              F
#:defined? TS.CalcGF              F
#:block? TS.ReUseGF              F
#:defined? TS.ReUseGF              F
TS.Elecs.Coord.Eps         0.1889726878E-02 Bohr     # default value
TS.Elecs.DM.Init     diagon     # default value
%block TS.Elecs
   Left
   Right
%endblock TS.Elecs
%block TS.Elecs
   Left
   Right
%endblock TS.Elecs
TS.Elecs.Accuracy         0.7349806700E-15 Ry     # default value
TS.Contours.nEq.Eta         0.7349806700E-05 Ry     # default value
TS.Elecs.Eta         0.7349806700E-05 Ry     # default value
TS.Elecs.Bulk              T
TS.Elecs.DM.Update     cross-terms                                                                     
TS.Elecs.GF.ReUse              T     # default value
TS.Elecs.Out-of-core              T     # default value
#:block? TS.Elec.Left.HS              F
#:defined? TS.Elec.Left.HS              F
TS.Elec.Left.Bloch.A1         1     # default value
TS.Elec.Left.Bloch.A2         1     # default value
TS.Elec.Left.Bloch.A3         1     # default value
#:block? TS.Elec.Left.GF              F
#:defined? TS.Elec.Left.GF              F
%block TS.Elec.Left
   HS Left.TSHS
   chem-pot Left
   semi-inf-dir -a3
   elec-pos begin 1
   used-atoms 32
%endblock TS.Elec.Left
#:block? TS.Elec.Right.HS              F
#:defined? TS.Elec.Right.HS              F
TS.Elec.Right.Bloch.A1         1     # default value
TS.Elec.Right.Bloch.A2         1     # default value
TS.Elec.Right.Bloch.A3         1     # default value
#:block? TS.Elec.Right.GF              F
#:defined? TS.Elec.Right.GF              F
%block TS.Elec.Right
   HS Right.TSHS
   chem-pot Right
   semi-inf-dir +a3
   elec-pos end -1
   used-atoms 32
%endblock TS.Elec.Right
TS.Poisson     ramp-central     # default value
SpinSpiral              F     # default value
%block kgrid_Monkhorst_Pack
    3   0   0   0.0
    0   3   0   0.0
    0   0   1   0.0
%endblock kgrid_Monkhorst_Pack
TS.BTD.Spectral     propagation     # default value
TS.Hartree.Fix     plane     # default value
TS.Hartree.Fix.Frac          1.000000000         # default value
TS.Hartree.Offset          0.000000000     Ry     # default value
TS.Hartree.Fix.Elec     largest volume/area electrode     # default value
#:block? TS.ComplexContour.NPoles              F
#:defined? TS.ComplexContour.NPoles              F
#:block? TS.Contour.-Left              F
%block TS.Contour.c-Left
   part circle
    from  -40.00000 eV + V/2 to -10. kT + V/2
     points 25
      method g-legendre
%endblock TS.Contour.c-Left
#:block? TS.Contour.-Left              F
%block TS.Contour.t-Left
   part tail
    from prev to inf
     points 10
      method g-fermi
%endblock TS.Contour.t-Left
TS.BTD.Pivot     atom+Left     # default value
TS.Contours.Eq.Pole.N         8     # default value
TS.Contours.Eq.Pole         0.1837449711             Ry
# above item originally: TS.Contours.Eq.Pole          2.500000000     eV        
TS.Atoms.Print              F     # default value
AtomicCoordinatesFormat     Ang                                                                             
AtomCoorFormatOut     Ang                        # default value
LatticeConstant          1.889726878           Bohr
# above item originally: LatticeConstant          1.000000000     Ang       
debug-folding              F     # default value
Sonly              F     # default value
File.TSDE.Init     siesta.TSDE     # default value
File.DM.Init     siesta.DM     # default value
Sonly              F     # default value
Debug.DHSCF              F     # default value
MeshSubDivisions         2     # default value
PROCS_PER_NODE         4     # default value
PROCS_PER_NODE         4     # default value
DirectPhi              F     # default value
SimulateDoping              F     # default value
SlabDipoleCorrection              F     # default value
Read-H-from-file              F     # default value
SingleExcitation              F     # default value
OccupationFunction     FD     # default value
OccupationFunction     FD     # default value
Read-H-from-file              F     # default value
TS.BTD.Pivot     atom+Left     # default value
TS.BTD.Guess1.Min        25     # default value
TS.BTD.Guess1.Max       218     # default value
TS.BTD.Output           # default value
compute-forces              T     # default value
#:list? Grid.CellSampling              F
Read-H-from-file              F     # default value
WriteCoorXmol              F     # default value
WriteCoorCerius              F     # default value
BasisPressure         0.2000000000     GPa     # default value
OpticalCalculation              F     # default value
