240
2


1
  0.000623   0.000000   0.009981 
 -0.004554   0.000003  -0.908833 
 -0.000001   0.000002  -0.012613 
 -0.000001   0.000002  -0.012637 
 -0.000001   0.000002  -0.012637 
 -0.000000   0.000002  -0.012610 
  0.002171  -0.000004   0.263567 
 -0.000003  -0.000003  -0.000543 
 -0.000004  -0.000002  -0.000520 
 -0.000003  -0.000003  -0.000520 
 -0.000003  -0.000002  -0.000549 
  0.000210  -0.000000   0.143931 
 -0.000008  -0.000001  -0.012619 
 -0.000008  -0.000001  -0.012638 
 -0.000008  -0.000001  -0.012638 
 -0.000008  -0.000001  -0.012602 
 -0.000260  -0.000002  -0.085625 
 -0.000002  -0.000002  -0.000535 
 -0.000002  -0.000002  -0.000517 
 -0.000003  -0.000002  -0.000517 
 -0.000002  -0.000002  -0.000555 
 -0.000022  -0.000001   0.042873 
 -0.000008  -0.000001  -0.012624 
 -0.000008  -0.000001  -0.012638 
 -0.000008  -0.000001  -0.012638 
 -0.000009  -0.000002  -0.012591 
  0.000015  -0.000001  -0.037579 
 -0.000003  -0.000002  -0.000531 
 -0.000002  -0.000002  -0.000517 
 -0.000002  -0.000002  -0.000517 
 -0.000002  -0.000002  -0.000568 
 -0.000001  -0.000003   0.014593 
 -0.000008  -0.000001  -0.012628 
 -0.000008  -0.000001  -0.012638 
 -0.000008  -0.000001  -0.012638 
 -0.000009  -0.000001  -0.012578 
 -0.000001  -0.000001  -0.020509 
 -0.000003  -0.000002  -0.000528 
 -0.000002  -0.000002  -0.000517 
 -0.000003  -0.000002  -0.000517 
 -0.000002  -0.000001  -0.000583 
 -0.000008  -0.000002   0.002918 
 -0.000008  -0.000001  -0.012630 
 -0.000008  -0.000001  -0.012638 
 -0.000009  -0.000001  -0.012637 
 -0.000009  -0.000002  -0.012560 
 -0.000006  -0.000001  -0.012484 
 -0.000002  -0.000002  -0.000525 
 -0.000002  -0.000002  -0.000517 
 -0.000003  -0.000002  -0.000516 
 -0.000002  -0.000002  -0.000606 
 -0.000006  -0.000000  -0.003020 
 -0.000008  -0.000001  -0.012632 
 -0.000009  -0.000001  -0.012638 
 -0.000009  -0.000001  -0.012638 
 -0.000009  -0.000002  -0.012534 
 -0.000004  -0.000002  -0.008136 
 -0.000003  -0.000002  -0.000524 
 -0.000002  -0.000002  -0.000517 
 -0.000003  -0.000002  -0.000517 
 -0.000002  -0.000001  -0.000635 
 -0.000008   0.000000  -0.006382 
 -0.000008  -0.000001  -0.012634 
 -0.000009  -0.000001  -0.012638 
 -0.000009  -0.000001  -0.012638 
 -0.000008  -0.000002  -0.012501 
 -0.000004  -0.000003  -0.005568 
 -0.000002  -0.000002  -0.000522 
 -0.000002  -0.000002  -0.000517 
 -0.000003  -0.000002  -0.000516 
 -0.000001  -0.000001  -0.000673 
 -0.000009   0.000000  -0.008426 
 -0.000009  -0.000001  -0.012635 
 -0.000009  -0.000001  -0.012638 
 -0.000009  -0.000001  -0.012638 
 -0.000008  -0.000001  -0.012457 
 -0.000004  -0.000002  -0.003968 
 -0.000002  -0.000002  -0.000521 
 -0.000002  -0.000002  -0.000517 
 -0.000003  -0.000002  -0.000516 
 -0.000001  -0.000001  -0.000724 
 -0.000009  -0.000000  -0.009730 
 -0.000008  -0.000001  -0.012636 
 -0.000009  -0.000001  -0.012638 
 -0.000009  -0.000001  -0.012638 
 -0.000009  -0.000002  -0.012400 
 -0.000002  -0.000002  -0.002924 
 -0.000002  -0.000002  -0.000520 
 -0.000002  -0.000002  -0.000517 
 -0.000002  -0.000002  -0.000517 
 -0.000000  -0.000001  -0.000792 
 -0.000008  -0.000000  -0.010589 
 -0.000008  -0.000001  -0.012636 
 -0.000009  -0.000001  -0.012638 
 -0.000009  -0.000001  -0.012637 
 -0.000008  -0.000000  -0.012321 
 -0.000003  -0.000002  -0.002227 
 -0.000002  -0.000002  -0.000519 
 -0.000002  -0.000002  -0.000517 
 -0.000002  -0.000002  -0.000517 
 -0.000001  -0.000001  -0.000884 
 -0.000009  -0.000001  -0.011171 
 -0.000008  -0.000001  -0.012637 
 -0.000009  -0.000001  -0.012638 
 -0.000009  -0.000001  -0.012637 
 -0.000009  -0.000001  -0.012214 
 -0.000004  -0.000003  -0.001747 
 -0.000002  -0.000002  -0.000519 
 -0.000002  -0.000002  -0.000517 
 -0.000002  -0.000002  -0.000517 
 -0.000002  -0.000003  -0.001010 
 -0.000010  -0.000000  -0.011578 
 -0.000009  -0.000001  -0.012638 
 -0.000009  -0.000001  -0.012638 
 -0.000009  -0.000001  -0.012637 
 -0.000008  -0.000001  -0.012068 
 -0.000003  -0.000002  -0.001412 
 -0.000003  -0.000002  -0.000518 
 -0.000002  -0.000002  -0.000517 
 -0.000002  -0.000002  -0.000517 
 -0.000004  -0.000002  -0.001185 
 -0.000009  -0.000001  -0.011864 
 -0.000009  -0.000001  -0.012638 
 -0.000009  -0.000001  -0.012637 
 -0.000009  -0.000001  -0.012636 
 -0.000009  -0.000001  -0.011864 
 -0.000003  -0.000003  -0.001175 
 -0.000002  -0.000002  -0.000518 
 -0.000002  -0.000001  -0.000517 
 -0.000002  -0.000002  -0.000518 
 -0.000003  -0.000002  -0.001427 
 -0.000009  -0.000002  -0.012068 
 -0.000009  -0.000001  -0.012638 
 -0.000009  -0.000001  -0.012637 
 -0.000009  -0.000001  -0.012636 
 -0.000009  -0.000000  -0.011580 
 -0.000002  -0.000002  -0.001006 
 -0.000003  -0.000002  -0.000517 
 -0.000002  -0.000001  -0.000517 
 -0.000002  -0.000002  -0.000518 
 -0.000004  -0.000003  -0.001767 
 -0.000009  -0.000001  -0.012213 
 -0.000009  -0.000001  -0.012638 
 -0.000008  -0.000001  -0.012637 
 -0.000009  -0.000001  -0.012635 
 -0.000009  -0.000001  -0.011179 
 -0.000001  -0.000001  -0.000881 
 -0.000003  -0.000002  -0.000517 
 -0.000002  -0.000002  -0.000517 
 -0.000002  -0.000002  -0.000519 
 -0.000004  -0.000002  -0.002249 
 -0.000009  -0.000001  -0.012322 
 -0.000008  -0.000001  -0.012638 
 -0.000009  -0.000001  -0.012637 
 -0.000009  -0.000001  -0.012635 
 -0.000010  -0.000001  -0.010595 
 -0.000001  -0.000001  -0.000790 
 -0.000003  -0.000002  -0.000517 
 -0.000002  -0.000002  -0.000517 
 -0.000002  -0.000002  -0.000519 
 -0.000004  -0.000002  -0.002963 
 -0.000008  -0.000002  -0.012401 
 -0.000008  -0.000001  -0.012639 
 -0.000009  -0.000001  -0.012638 
 -0.000009  -0.000001  -0.012634 
 -0.000010  -0.000001  -0.009738 
 -0.000001  -0.000002  -0.000722 
 -0.000003  -0.000002  -0.000517 
 -0.000002  -0.000001  -0.000517 
 -0.000003  -0.000002  -0.000520 
 -0.000002  -0.000004  -0.004025 
 -0.000008  -0.000002  -0.012459 
 -0.000008  -0.000001  -0.012639 
 -0.000008  -0.000001  -0.012638 
 -0.000009  -0.000001  -0.012633 
 -0.000010  -0.000000  -0.008442 
 -0.000001  -0.000002  -0.000671 
 -0.000003  -0.000002  -0.000517 
 -0.000002  -0.000002  -0.000517 
 -0.000002  -0.000002  -0.000522 
 -0.000004  -0.000004  -0.005666 
 -0.000008  -0.000002  -0.012503 
 -0.000008  -0.000001  -0.012639 
 -0.000008  -0.000001  -0.012638 
 -0.000008  -0.000001  -0.012632 
 -0.000008   0.000001  -0.006405 
 -0.000002  -0.000003  -0.000635 
 -0.000003  -0.000002  -0.000516 
 -0.000002  -0.000001  -0.000517 
 -0.000002  -0.000002  -0.000523 
 -0.000003  -0.000002  -0.008298 
 -0.000008  -0.000002  -0.012536 
 -0.000008  -0.000001  -0.012639 
 -0.000008  -0.000001  -0.012638 
 -0.000009  -0.000001  -0.012630 
 -0.000011  -0.000000  -0.003058 
 -0.000002  -0.000002  -0.000606 
 -0.000003  -0.000002  -0.000517 
 -0.000002  -0.000001  -0.000517 
 -0.000002  -0.000002  -0.000525 
 -0.000006  -0.000001  -0.012772 
 -0.000008  -0.000002  -0.012562 
 -0.000008  -0.000001  -0.012639 
 -0.000008  -0.000001  -0.012637 
 -0.000008  -0.000001  -0.012628 
 -0.000004  -0.000000   0.002848 
 -0.000002  -0.000001  -0.000584 
 -0.000003  -0.000002  -0.000517 
 -0.000002  -0.000001  -0.000517 
 -0.000002  -0.000002  -0.000526 
 -0.000005  -0.000004  -0.021063 
 -0.000009  -0.000002  -0.012580 
 -0.000008  -0.000001  -0.012638 
 -0.000008  -0.000001  -0.012637 
 -0.000009  -0.000001  -0.012625 
 -0.000002  -0.000001   0.014450 
 -0.000003  -0.000002  -0.000569 
 -0.000003  -0.000002  -0.000517 
 -0.000002  -0.000001  -0.000517 
 -0.000002  -0.000002  -0.000529 
  0.000007  -0.000002  -0.038843 
 -0.000008  -0.000002  -0.012594 
 -0.000008  -0.000001  -0.012638 
 -0.000008  -0.000001  -0.012638 
 -0.000009  -0.000001  -0.012621 
 -0.000021  -0.000001   0.042508 
 -0.000003  -0.000002  -0.000557 
 -0.000003  -0.000002  -0.000517 
 -0.000003  -0.000002  -0.000517 
 -0.000002  -0.000002  -0.000533 
 -0.000171  -0.000002  -0.089435 
 -0.000009  -0.000001  -0.012603 
 -0.000009  -0.000002  -0.012637 
 -0.000009  -0.000001  -0.012636 
 -0.000009  -0.000001  -0.012615 
  0.000269  -0.000001   0.141997 
  0.000003   0.000005  -0.000544 
  0.000003   0.000005  -0.000514 
  0.000003   0.000006  -0.000514 
  0.000002   0.000005  -0.000536 
  0.002360   0.000006   0.428298 

1
 -0.000623   0.000000  -0.009981 
  0.004449   0.000002   0.910091 
 -0.000003   0.000002  -0.012672 
 -0.000002   0.000001  -0.012642 
 -0.000002   0.000002  -0.012642 
 -0.000002   0.000002  -0.012672 
 -0.002433  -0.000002  -0.249330 
 -0.000004  -0.000002  -0.000489 
 -0.000004  -0.000002  -0.000516 
 -0.000005  -0.000002  -0.000515 
 -0.000004  -0.000002  -0.000481 
 -0.000239  -0.000002  -0.165350 
 -0.000011  -0.000002  -0.012667 
 -0.000011  -0.000002  -0.012643 
 -0.000011  -0.000003  -0.012643 
 -0.000010  -0.000002  -0.012681 
  0.000250   0.000000   0.082408 
 -0.000004  -0.000001  -0.000492 
 -0.000004  -0.000001  -0.000512 
 -0.000003  -0.000001  -0.000511 
 -0.000003  -0.000002  -0.000469 
  0.000035  -0.000000  -0.066745 
 -0.000011  -0.000002  -0.012662 
 -0.000011  -0.000003  -0.012643 
 -0.000011  -0.000003  -0.012643 
 -0.000010  -0.000003  -0.012691 
 -0.000021  -0.000001   0.035557 
 -0.000004  -0.000001  -0.000496 
 -0.000004  -0.000001  -0.000512 
 -0.000004  -0.000001  -0.000511 
 -0.000003  -0.000001  -0.000456 
 -0.000008  -0.000001  -0.039108 
 -0.000011  -0.000002  -0.012658 
 -0.000011  -0.000002  -0.012643 
 -0.000011  -0.000003  -0.012643 
 -0.000010  -0.000003  -0.012705 
 -0.000006  -0.000002   0.018900 
 -0.000004  -0.000001  -0.000500 
 -0.000004  -0.000001  -0.000512 
 -0.000003  -0.000001  -0.000511 
 -0.000003  -0.000001  -0.000440 
 -0.000008   0.000000  -0.027727 
 -0.000011  -0.000003  -0.012655 
 -0.000011  -0.000002  -0.012643 
 -0.000011  -0.000002  -0.012643 
 -0.000010  -0.000003  -0.012723 
 -0.000002  -0.000001   0.011087 
 -0.000004  -0.000001  -0.000502 
 -0.000004  -0.000001  -0.000512 
 -0.000004  -0.000001  -0.000510 
 -0.000003  -0.000001  -0.000419 
 -0.000011   0.000001  -0.021950 
 -0.000010  -0.000002  -0.012653 
 -0.000011  -0.000003  -0.012643 
 -0.000011  -0.000002  -0.012644 
 -0.000010  -0.000003  -0.012746 
 -0.000003  -0.000002   0.006863 
 -0.000003  -0.000001  -0.000504 
 -0.000004  -0.000001  -0.000512 
 -0.000004  -0.000001  -0.000510 
 -0.000003  -0.000001  -0.000393 
 -0.000008  -0.000000  -0.018688 
 -0.000010  -0.000002  -0.012651 
 -0.000011  -0.000002  -0.012643 
 -0.000011  -0.000002  -0.012644 
 -0.000010  -0.000003  -0.012777 
 -0.000005  -0.000002   0.004374 
 -0.000003  -0.000002  -0.000505 
 -0.000004  -0.000001  -0.000512 
 -0.000004  -0.000001  -0.000510 
 -0.000003  -0.000001  -0.000356 
 -0.000009   0.000000  -0.016706 
 -0.000011  -0.000002  -0.012649 
 -0.000011  -0.000002  -0.012643 
 -0.000011  -0.000002  -0.012644 
 -0.000011  -0.000001  -0.012820 
 -0.000005  -0.000001   0.002821 
 -0.000003  -0.000001  -0.000507 
 -0.000004  -0.000001  -0.000512 
 -0.000004  -0.000001  -0.000509 
 -0.000003  -0.000001  -0.000306 
 -0.000011  -0.000001  -0.015450 
 -0.000011  -0.000002  -0.012648 
 -0.000011  -0.000002  -0.012643 
 -0.000011  -0.000003  -0.012644 
 -0.000010  -0.000001  -0.012877 
 -0.000004  -0.000002   0.001812 
 -0.000003  -0.000001  -0.000508 
 -0.000004  -0.000001  -0.000512 
 -0.000004  -0.000001  -0.000509 
 -0.000004  -0.000001  -0.000240 
 -0.000009  -0.000000  -0.014617 
 -0.000010  -0.000002  -0.012647 
 -0.000011  -0.000003  -0.012643 
 -0.000011  -0.000002  -0.012644 
 -0.000009   0.000000  -0.012953 
 -0.000005  -0.000002   0.001139 
 -0.000004  -0.000001  -0.000509 
 -0.000004  -0.000001  -0.000512 
 -0.000004  -0.000001  -0.000509 
 -0.000003  -0.000002  -0.000151 
 -0.000010  -0.000001  -0.014055 
 -0.000011  -0.000002  -0.012646 
 -0.000011  -0.000002  -0.012642 
 -0.000011  -0.000002  -0.012645 
 -0.000010  -0.000001  -0.013056 
 -0.000003  -0.000002   0.000677 
 -0.000004  -0.000001  -0.000509 
 -0.000004  -0.000001  -0.000512 
 -0.000004  -0.000001  -0.000509 
 -0.000003  -0.000002  -0.000028 
 -0.000010  -0.000001  -0.013666 
 -0.000011  -0.000002  -0.012646 
 -0.000011  -0.000002  -0.012643 
 -0.000011  -0.000002  -0.012645 
 -0.000011  -0.000001  -0.013197 
 -0.000004  -0.000003   0.000355 
 -0.000004  -0.000001  -0.000510 
 -0.000004  -0.000001  -0.000512 
 -0.000004  -0.000001  -0.000509 
 -0.000004  -0.000003   0.000142 
 -0.000010  -0.000001  -0.013392 
 -0.000011  -0.000002  -0.012645 
 -0.000011  -0.000003  -0.012642 
 -0.000011  -0.000002  -0.012645 
 -0.000011  -0.000002  -0.013396 
 -0.000004  -0.000002   0.000126 
 -0.000003  -0.000001  -0.000511 
 -0.000004  -0.000001  -0.000512 
 -0.000004  -0.000001  -0.000508 
 -0.000003  -0.000002   0.000373 
 -0.000011  -0.000001  -0.013196 
 -0.000011  -0.000002  -0.012645 
 -0.000011  -0.000002  -0.012643 
 -0.000011  -0.000002  -0.012646 
 -0.000012  -0.000003  -0.013668 
 -0.000003  -0.000002  -0.000038 
 -0.000004  -0.000001  -0.000511 
 -0.000004  -0.000001  -0.000512 
 -0.000003  -0.000001  -0.000508 
 -0.000002  -0.000002   0.000703 
 -0.000010  -0.000000  -0.013056 
 -0.000011  -0.000002  -0.012644 
 -0.000011  -0.000002  -0.012642 
 -0.000011  -0.000002  -0.012646 
 -0.000011  -0.000001  -0.014059 
 -0.000003  -0.000001  -0.000158 
 -0.000004  -0.000001  -0.000511 
 -0.000004  -0.000001  -0.000512 
 -0.000004  -0.000001  -0.000507 
 -0.000003  -0.000002   0.001176 
 -0.000011  -0.000001  -0.012953 
 -0.000011  -0.000003  -0.012645 
 -0.000011  -0.000003  -0.012643 
 -0.000011  -0.000002  -0.012647 
 -0.000009   0.000000  -0.014623 
 -0.000003  -0.000001  -0.000247 
 -0.000004  -0.000001  -0.000512 
 -0.000003  -0.000001  -0.000512 
 -0.000004  -0.000001  -0.000506 
 -0.000005  -0.000002   0.001866 
 -0.000010  -0.000002  -0.012876 
 -0.000011  -0.000002  -0.012644 
 -0.000011  -0.000002  -0.012643 
 -0.000010  -0.000002  -0.012648 
 -0.000011  -0.000000  -0.015455 
 -0.000003  -0.000002  -0.000313 
 -0.000004  -0.000001  -0.000512 
 -0.000003  -0.000001  -0.000511 
 -0.000004  -0.000001  -0.000505 
 -0.000005  -0.000001   0.002901 
 -0.000010  -0.000002  -0.012820 
 -0.000011  -0.000003  -0.012644 
 -0.000011  -0.000002  -0.012642 
 -0.000010  -0.000002  -0.012649 
 -0.000010   0.000000  -0.016722 
 -0.000002  -0.000002  -0.000360 
 -0.000004  -0.000001  -0.000512 
 -0.000003  -0.000001  -0.000512 
 -0.000004  -0.000001  -0.000504 
 -0.000005  -0.000002   0.004502 
 -0.000009  -0.000002  -0.012777 
 -0.000011  -0.000002  -0.012644 
 -0.000011  -0.000002  -0.012643 
 -0.000011  -0.000002  -0.012651 
 -0.000010   0.000000  -0.018706 
 -0.000003  -0.000001  -0.000396 
 -0.000004  -0.000001  -0.000512 
 -0.000003  -0.000001  -0.000511 
 -0.000004  -0.000001  -0.000502 
 -0.000005  -0.000001   0.007074 
 -0.000010  -0.000002  -0.012746 
 -0.000011  -0.000002  -0.012644 
 -0.000011  -0.000002  -0.012642 
 -0.000010  -0.000002  -0.012653 
 -0.000010  -0.000001  -0.021992 
 -0.000003  -0.000001  -0.000422 
 -0.000004  -0.000001  -0.000512 
 -0.000004  -0.000001  -0.000511 
 -0.000004  -0.000001  -0.000500 
 -0.000002  -0.000001   0.011460 
 -0.000010  -0.000002  -0.012724 
 -0.000011  -0.000002  -0.012644 
 -0.000011  -0.000003  -0.012642 
 -0.000010  -0.000002  -0.012655 
 -0.000013  -0.000000  -0.027788 
 -0.000003  -0.000001  -0.000443 
 -0.000004  -0.000001  -0.000512 
 -0.000004  -0.000001  -0.000511 
 -0.000004  -0.000001  -0.000498 
 -0.000003  -0.000001   0.019633 
 -0.000010  -0.000003  -0.012704 
 -0.000011  -0.000002  -0.012643 
 -0.000011  -0.000003  -0.012643 
 -0.000011  -0.000002  -0.012658 
 -0.000000   0.000000  -0.039244 
 -0.000003  -0.000002  -0.000458 
 -0.000004  -0.000001  -0.000512 
 -0.000004  -0.000001  -0.000511 
 -0.000003  -0.000001  -0.000495 
 -0.000012  -0.000003   0.037238 
 -0.000010  -0.000003  -0.012690 
 -0.000011  -0.000002  -0.012643 
 -0.000011  -0.000003  -0.012643 
 -0.000011  -0.000002  -0.012662 
  0.000026   0.000001  -0.067109 
 -0.000003  -0.000002  -0.000470 
 -0.000004  -0.000001  -0.000511 
 -0.000004  -0.000001  -0.000511 
 -0.000004  -0.000002  -0.000490 
  0.000151  -0.000004   0.087836 
 -0.000011  -0.000002  -0.012679 
 -0.000011  -0.000002  -0.012642 
 -0.000011  -0.000003  -0.012642 
 -0.000011  -0.000003  -0.012665 
 -0.000184  -0.000002  -0.167215 
  0.000002   0.000006  -0.000476 
  0.000002   0.000006  -0.000508 
  0.000002   0.000006  -0.000507 
  0.000002   0.000006  -0.000480 
 -0.002009   0.000006  -0.473495 
