
#FDF: Opened INPUT_TMP.44493      for input. Unit: 12

fdf-debug              0     # Default value
SystemName     cc_strain                                                                                                                           
SystemLabel     cc_strain                                                                                                                           
XML.Write              T     # Default value
Write.XML              T     # Default value
XML.AbortOnErrors              F     # Default value
XML.AbortOnWarnings              F     # Default value
alloc_report_level              0     # Default value
xc.functional     LDA                                                                                                                                 
xc.authors     CA                                                                                                                                  
MM.Cutoff          30.00000000     Bohr     # Default value
MM.UnitsEnergy     eV     # Default value
MM.UnitsDistance     Ang     # Default value
WriteIonPlotFiles              F     # Default value
Atom.Debug.KB.Generation              F     # Default value
user-basis              F     # Default value
user-basis-netcdf              F     # Default value
ReparametrizePseudos              F     # Default value
Restricted.Radial.Grid              T     # Default value
Rmax.Radial.Grid          0.000000000         # Default value
PAO.BasisSize     DZP                                                                                                                                 
PAO.BasisType     split                                                                                                                               
PAO.SoftDefault              F     # Default value
PAO.SoftInnerRadius         0.9000000000         # Default value
PAO.SoftPotential          40.00000000         # Default value
PAO.SplitNorm         0.1500000000    
PAO.SplitNormH         -1.000000000         # Default value
Number_of_species                        1

%block ChemicalSpeciesLabel                                                    
 1 6 C                                                                         
%endblock ChemicalSpeciesLabel                                                 
 
FilterCutoff          0.000000000     Ry     # Default value
FilterTol          0.000000000     Ry     # Default value
KB.Rmax          6.000000000     Bohr     # Default value
PAO.EnergyShift         0.7349798845E-02         Ry
# Above item originally: PAO.EnergyShift          100.0000000     meV       
PAO.SplitTailNorm              F     # Default value
PAO.FixSplitTable              F     # Default value
PAO.NewSplitCode              F     # Default value
PAO.Filter              F     # Default value
PAO.Keep.Findp.Bug              F     # Default value
PAO.Filter              F     # Default value
PAO.Filter              F     # Default value
PAO.Filter              F     # Default value
PAO.OldStylePolorbs              T     # Default value
PAO.SplitTailNorm              F     # Default value
PAO.FixSplitTable              F     # Default value
PAO.NewSplitCode              F     # Default value
PAO.Filter              F     # Default value
Vna.Filter              F     # Default value
PAO.BasisType     split                                                                                                                               
Atom-Setup-Only              F     # Default value
UseStructFile              F     # Default value
MD.UseStructFile              F     # Default value
LatticeConstant          1.000000000           Bohr
# Above item originally: LatticeConstant          1.000000000     Bohr      

%block LatticeVectors                                                          
   37.7945227409938056    0.0000000000000000    0.0000000000000000             
    0.0000000000000000   37.7945227409938056    0.0000000000000000             
    0.0000000000000000    0.0000000000000000  605.4682543107206811             
%endblock LatticeVectors                                                       
 

%block LatticeVectors                                                          
   37.7945227409938056    0.0000000000000000    0.0000000000000000             
    0.0000000000000000   37.7945227409938056    0.0000000000000000             
    0.0000000000000000    0.0000000000000000  605.4682543107206811             
%endblock LatticeVectors                                                       
 
AtomicCoordinatesFormat     Fractional                                                                                                                          
NumberOfAtoms                      240
ZM.UnitsLength     Bohr           # Default value
ZM.UnitsAngle     rad            # Default value
ZM.ForceTolLength         0.1555740000E-02 Ry/Bohr     # Default value
ZM.ForceTolAngle         0.3565490000E-02 Ry/rad     # Default value
ZM.MaxDisplLength         0.2000000000     Bohr     # Default value
ZM.MaxDisplAngle         0.3000000000E-02 rad     # Default value
ZM.CalcAllForces              F     # Default value

%block AtomicCoordinatesAndAtomicSpecies                                       
   0.5000325181173757   0.4999996999999999   0.0000329681173758 1              
   0.4999995500000000   0.4999996999999999   0.2000000000000000 1              
   0.4999995500000000   0.4999996999999999   0.4000000000000000 1              
   0.4999995500000000   0.4999996999999999   0.6000000000000001 1              
   0.4999995500000000   0.4999996999999999   0.8000000000000000 1              
   0.4999995960000000   0.4999997640000000   0.0042769005992509 1              
   0.4999995960000000   0.4999997640000000   0.2042769005992510 1              
   0.4999995960000000   0.4999997640000000   0.4042769005992510 1              
   0.4999995960000000   0.4999997640000000   0.6042769005992510 1              
   0.4999995960000000   0.4999997640000000   0.8042769005992509 1              
   0.4999995500000000   0.4999996999999999   0.0083333333988764 1              
   0.4999995500000000   0.4999996999999999   0.2083333333988764 1              
   0.4999995500000000   0.4999996999999999   0.4083333333988765 1              
   0.4999995500000000   0.4999996999999999   0.6083333333988765 1              
   0.4999995500000000   0.4999996999999999   0.8083333333988764 1              
   0.4999995960000000   0.4999997640000000   0.0126102338014981 1              
   0.4999995960000000   0.4999997640000000   0.2126102338014981 1              
   0.4999995960000000   0.4999997640000000   0.4126102338014981 1              
   0.4999995960000000   0.4999997640000000   0.6126102338014981 1              
   0.4999995960000000   0.4999997640000000   0.8126102338014981 1              
   0.4999995500000000   0.4999996999999999   0.0166666666011236 1              
   0.4999995500000000   0.4999996999999999   0.2166666666011236 1              
   0.4999995500000000   0.4999996999999999   0.4166666666011236 1              
   0.4999995500000000   0.4999996999999999   0.6166666666011236 1              
   0.4999995500000000   0.4999996999999999   0.8166666666011237 1              
   0.4999995960000000   0.4999997640000000   0.0209435672003745 1              
   0.4999995960000000   0.4999997640000000   0.2209435672003745 1              
   0.4999995960000000   0.4999997640000000   0.4209435672003745 1              
   0.4999995960000000   0.4999997640000000   0.6209435672003746 1              
   0.4999995960000000   0.4999997640000000   0.8209435672003746 1              
   0.4999995500000000   0.4999996999999999   0.0250000000000000 1              
   0.4999995500000000   0.4999996999999999   0.2250000000000000 1              
   0.4999995500000000   0.4999996999999999   0.4250000000000000 1              
   0.4999995500000000   0.4999996999999999   0.6250000000000000 1              
   0.4999995500000000   0.4999996999999999   0.8250000000000001 1              
   0.4999995960000000   0.4999997640000000   0.0292769005992509 1              
   0.4999995960000000   0.4999997640000000   0.2292769005992510 1              
   0.4999995960000000   0.4999997640000000   0.4292769005992509 1              
   0.4999995960000000   0.4999997640000000   0.6292769005992510 1              
   0.4999995960000000   0.4999997640000000   0.8292769005992510 1              
   0.4999995500000000   0.4999996999999999   0.0333333333988764 1              
   0.4999995500000000   0.4999996999999999   0.2333333333988764 1              
   0.4999995500000000   0.4999996999999999   0.4333333333988765 1              
   0.4999995500000000   0.4999996999999999   0.6333333333988764 1              
   0.4999995500000000   0.4999996999999999   0.8333333333988764 1              
   0.4999995960000000   0.4999997640000000   0.0376102338014981 1              
   0.4999995960000000   0.4999997640000000   0.2376102338014981 1              
   0.4999995960000000   0.4999997640000000   0.4376102338014983 1              
   0.4999995960000000   0.4999997640000000   0.6376102338014982 1              
   0.4999995960000000   0.4999997640000000   0.8376102338014981 1              
   0.4999995500000000   0.4999996999999999   0.0416666666011236 1              
   0.4999995500000000   0.4999996999999999   0.2416666666011237 1              
   0.4999995500000000   0.4999996999999999   0.4416666666011235 1              
   0.4999995500000000   0.4999996999999999   0.6416666666011236 1              
   0.4999995500000000   0.4999996999999999   0.8416666666011237 1              
   0.4999995960000000   0.4999997640000000   0.0459435672003745 1              
   0.4999995960000000   0.4999997640000000   0.2459435672003745 1              
   0.4999995960000000   0.4999997640000000   0.4459435672003745 1              
   0.4999995960000000   0.4999997640000000   0.6459435672003746 1              
   0.4999995960000000   0.4999997640000000   0.8459435672003746 1              
   0.4999995500000000   0.4999996999999999   0.0500000000000000 1              
   0.4999995500000000   0.4999996999999999   0.2500000000000000 1              
   0.4999995500000000   0.4999996999999999   0.4500000000000000 1              
   0.4999995500000000   0.4999996999999999   0.6500000000000000 1              
   0.4999995500000000   0.4999996999999999   0.8500000000000001 1              
   0.4999995960000000   0.4999997640000000   0.0542769005992510 1              
   0.4999995960000000   0.4999997640000000   0.2542769005992510 1              
   0.4999995960000000   0.4999997640000000   0.4542769005992510 1              
   0.4999995960000000   0.4999997640000000   0.6542769005992510 1              
   0.4999995960000000   0.4999997640000000   0.8542769005992510 1              
   0.4999995500000000   0.4999996999999999   0.0583333333988764 1              
   0.4999995500000000   0.4999996999999999   0.2583333333988764 1              
   0.4999995500000000   0.4999996999999999   0.4583333333988764 1              
   0.4999995500000000   0.4999996999999999   0.6583333333988765 1              
   0.4999995500000000   0.4999996999999999   0.8583333333988764 1              
   0.4999995960000000   0.4999997640000000   0.0626102338014981 1              
   0.4999995960000000   0.4999997640000000   0.2626102338014981 1              
   0.4999995960000000   0.4999997640000000   0.4626102338014982 1              
   0.4999995960000000   0.4999997640000000   0.6626102338014982 1              
   0.4999995960000000   0.4999997640000000   0.8626102338014981 1              
   0.4999995500000000   0.4999996999999999   0.0666666666011236 1              
   0.4999995500000000   0.4999996999999999   0.2666666666011236 1              
   0.4999995500000000   0.4999996999999999   0.4666666666011236 1              
   0.4999995500000000   0.4999996999999999   0.6666666666011236 1              
   0.4999995500000000   0.4999996999999999   0.8666666666011238 1              
   0.4999995960000000   0.4999997640000000   0.0709435672003745 1              
   0.4999995960000000   0.4999997640000000   0.2709435672003745 1              
   0.4999995960000000   0.4999997640000000   0.4709435672003746 1              
   0.4999995960000000   0.4999997640000000   0.6709435672003745 1              
   0.4999995960000000   0.4999997640000000   0.8709435672003747 1              
   0.4999995500000000   0.4999996999999999   0.0750000000000000 1              
   0.4999995500000000   0.4999996999999999   0.2750000000000000 1              
   0.4999995500000000   0.4999996999999999   0.4750000000000000 1              
   0.4999995500000000   0.4999996999999999   0.6750000000000000 1              
   0.4999995500000000   0.4999996999999999   0.8749999999999999 1              
   0.4999995960000000   0.4999997640000000   0.0792769005992510 1              
   0.4999995960000000   0.4999997640000000   0.2792769005992510 1              
   0.4999995960000000   0.4999997640000000   0.4792769005992510 1              
   0.4999995960000000   0.4999997640000000   0.6792769005992509 1              
   0.4999995960000000   0.4999997640000000   0.8792769005992510 1              
   0.4999995500000000   0.4999996999999999   0.0833333333988764 1              
   0.4999995500000000   0.4999996999999999   0.2833333333988765 1              
   0.4999995500000000   0.4999996999999999   0.4833333333988765 1              
   0.4999995500000000   0.4999996999999999   0.6833333333988765 1              
   0.4999995500000000   0.4999996999999999   0.8833333333988765 1              
   0.4999995960000000   0.4999997640000000   0.0876102338014981 1              
   0.4999995960000000   0.4999997640000000   0.2876102338014981 1              
   0.4999995960000000   0.4999997640000000   0.4876102338014981 1              
   0.4999995960000000   0.4999997640000000   0.6876102338014982 1              
   0.4999995960000000   0.4999997640000000   0.8876102338014982 1              
   0.4999995500000000   0.4999996999999999   0.0916666666011236 1              
   0.4999995500000000   0.4999996999999999   0.2916666666011236 1              
   0.4999995500000000   0.4999996999999999   0.4916666666011236 1              
   0.4999995500000000   0.4999996999999999   0.6916666666011236 1              
   0.4999995500000000   0.4999996999999999   0.8916666666011236 1              
   0.4999995960000000   0.4999997640000000   0.0959435672003746 1              
   0.4999995960000000   0.4999997640000000   0.2959435672003746 1              
   0.4999995960000000   0.4999997640000000   0.4959435672003745 1              
   0.4999995960000000   0.4999997640000000   0.6959435672003745 1              
   0.4999995960000000   0.4999997640000000   0.8959435672003747 1              
   0.4999995500000000   0.4999996999999999   0.1000000000000000 1              
   0.4999995500000000   0.4999996999999999   0.3000000000000000 1              
   0.4999995500000000   0.4999996999999999   0.5000000000000000 1              
   0.4999995500000000   0.4999996999999999   0.7000000000000001 1              
   0.4999995500000000   0.4999996999999999   0.9000000000000000 1              
   0.4999995960000000   0.4999997640000000   0.1042769005992509 1              
   0.4999995960000000   0.4999997640000000   0.3042769005992509 1              
   0.4999995960000000   0.4999997640000000   0.5042769005992510 1              
   0.4999995960000000   0.4999997640000000   0.7042769005992510 1              
   0.4999995960000000   0.4999997640000000   0.9042769005992510 1              
   0.4999995500000000   0.4999996999999999   0.1083333333988764 1              
   0.4999995500000000   0.4999996999999999   0.3083333333988765 1              
   0.4999995500000000   0.4999996999999999   0.5083333333988764 1              
   0.4999995500000000   0.4999996999999999   0.7083333333988765 1              
   0.4999995500000000   0.4999996999999999   0.9083333333988763 1              
   0.4999995960000000   0.4999997640000000   0.1126102338014982 1              
   0.4999995960000000   0.4999997640000000   0.3126102338014982 1              
   0.4999995960000000   0.4999997640000000   0.5126102338014982 1              
   0.4999995960000000   0.4999997640000000   0.7126102338014982 1              
   0.4999995960000000   0.4999997640000000   0.9126102338014980 1              
   0.4999995500000000   0.4999996999999999   0.1166666666011236 1              
   0.4999995500000000   0.4999996999999999   0.3166666666011236 1              
   0.4999995500000000   0.4999996999999999   0.5166666666011236 1              
   0.4999995500000000   0.4999996999999999   0.7166666666011237 1              
   0.4999995500000000   0.4999996999999999   0.9166666666011237 1              
   0.4999995960000000   0.4999997640000000   0.1209435672003746 1              
   0.4999995960000000   0.4999997640000000   0.3209435672003746 1              
   0.4999995960000000   0.4999997640000000   0.5209435672003746 1              
   0.4999995960000000   0.4999997640000000   0.7209435672003747 1              
   0.4999995960000000   0.4999997640000000   0.9209435672003745 1              
   0.4999995500000000   0.4999996999999999   0.1250000000000000 1              
   0.4999995500000000   0.4999996999999999   0.3250000000000000 1              
   0.4999995500000000   0.4999996999999999   0.5250000000000000 1              
   0.4999995500000000   0.4999996999999999   0.7250000000000001 1              
   0.4999995500000000   0.4999996999999999   0.9250000000000000 1              
   0.4999995960000000   0.4999997640000000   0.1292769005992510 1              
   0.4999995960000000   0.4999997640000000   0.3292769005992510 1              
   0.4999995960000000   0.4999997640000000   0.5292769005992509 1              
   0.4999995960000000   0.4999997640000000   0.7292769005992510 1              
   0.4999995960000000   0.4999997640000000   0.9292769005992509 1              
   0.4999995500000000   0.4999996999999999   0.1333333333988764 1              
   0.4999995500000000   0.4999996999999999   0.3333333333988764 1              
   0.4999995500000000   0.4999996999999999   0.5333333333988765 1              
   0.4999995500000000   0.4999996999999999   0.7333333333988765 1              
   0.4999995500000000   0.4999996999999999   0.9333333333988764 1              
   0.4999995960000000   0.4999997640000000   0.1376102338014981 1              
   0.4999995960000000   0.4999997640000000   0.3376102338014981 1              
   0.4999995960000000   0.4999997640000000   0.5376102338014981 1              
   0.4999995960000000   0.4999997640000000   0.7376102338014981 1              
   0.4999995960000000   0.4999997640000000   0.9376102338014981 1              
   0.4999995500000000   0.4999996999999999   0.1416666666011236 1              
   0.4999995500000000   0.4999996999999999   0.3416666666011237 1              
   0.4999995500000000   0.4999996999999999   0.5416666666011237 1              
   0.4999995500000000   0.4999996999999999   0.7416666666011237 1              
   0.4999995500000000   0.4999996999999999   0.9416666666011237 1              
   0.4999995960000000   0.4999997640000000   0.1459435672003745 1              
   0.4999995960000000   0.4999997640000000   0.3459435672003746 1              
   0.4999995960000000   0.4999997640000000   0.5459435672003745 1              
   0.4999995960000000   0.4999997640000000   0.7459435672003746 1              
   0.4999995960000000   0.4999997640000000   0.9459435672003746 1              
   0.4999995500000000   0.4999996999999999   0.1500000000000000 1              
   0.4999995500000000   0.4999996999999999   0.3500000000000000 1              
   0.4999995500000000   0.4999996999999999   0.5500000000000000 1              
   0.4999995500000000   0.4999996999999999   0.7500000000000001 1              
   0.4999995500000000   0.4999996999999999   0.9500000000000001 1              
   0.4999995960000000   0.4999997640000000   0.1542769005992509 1              
   0.4999995960000000   0.4999997640000000   0.3542769005992510 1              
   0.4999995960000000   0.4999997640000000   0.5542769005992509 1              
   0.4999995960000000   0.4999997640000000   0.7542769005992510 1              
   0.4999995960000000   0.4999997640000000   0.9542769005992510 1              
   0.4999995500000000   0.4999996999999999   0.1583333333988765 1              
   0.4999995500000000   0.4999996999999999   0.3583333333988765 1              
   0.4999995500000000   0.4999996999999999   0.5583333333988765 1              
   0.4999995500000000   0.4999996999999999   0.7583333333988764 1              
   0.4999995500000000   0.4999996999999999   0.9583333333988766 1              
   0.4999995960000000   0.4999997640000000   0.1626102338014982 1              
   0.4999995960000000   0.4999997640000000   0.3626102338014982 1              
   0.4999995960000000   0.4999997640000000   0.5626102338014982 1              
   0.4999995960000000   0.4999997640000000   0.7626102338014982 1              
   0.4999995960000000   0.4999997640000000   0.9626102338014981 1              
   0.4999995500000000   0.4999996999999999   0.1666666666011236 1              
   0.4999995500000000   0.4999996999999999   0.3666666666011236 1              
   0.4999995500000000   0.4999996999999999   0.5666666666011236 1              
   0.4999995500000000   0.4999996999999999   0.7666666666011237 1              
   0.4999995500000000   0.4999996999999999   0.9666666666011237 1              
   0.4999995960000000   0.4999997640000000   0.1709435672003745 1              
   0.4999995960000000   0.4999997640000000   0.3709435672003745 1              
   0.4999995960000000   0.4999997640000000   0.5709435672003745 1              
   0.4999995960000000   0.4999997640000000   0.7709435672003746 1              
   0.4999995960000000   0.4999997640000000   0.9709435672003747 1              
   0.4999995500000000   0.4999996999999999   0.1750000000000000 1              
   0.4999995500000000   0.4999996999999999   0.3750000000000001 1              
   0.4999995500000000   0.4999996999999999   0.5750000000000001 1              
   0.4999995500000000   0.4999996999999999   0.7750000000000000 1              
   0.4999995500000000   0.4999996999999999   0.9750000000000002 1              
   0.4999995960000000   0.4999997640000000   0.1792769005992509 1              
   0.4999995960000000   0.4999997640000000   0.3792769005992510 1              
   0.4999995960000000   0.4999997640000000   0.5792769005992510 1              
   0.4999995960000000   0.4999997640000000   0.7792769005992510 1              
   0.4999995960000000   0.4999997640000000   0.9792769005992510 1              
   0.4999995500000000   0.4999996999999999   0.1833333333988764 1              
   0.4999995500000000   0.4999996999999999   0.3833333333988764 1              
   0.4999995500000000   0.4999996999999999   0.5833333333988765 1              
   0.4999995500000000   0.4999996999999999   0.7833333333988765 1              
   0.4999995500000000   0.4999996999999999   0.9833333333988765 1              
   0.4999995960000000   0.4999997640000000   0.1876102338014982 1              
   0.4999995960000000   0.4999997640000000   0.3876102338014982 1              
   0.4999995960000000   0.4999997640000000   0.5876102338014982 1              
   0.4999995960000000   0.4999997640000000   0.7876102338014982 1              
   0.4999995960000000   0.4999997640000000   0.9876102338014981 1              
   0.4999995500000000   0.4999996999999999   0.1916666666011236 1              
   0.4999995500000000   0.4999996999999999   0.3916666666011236 1              
   0.4999995500000000   0.4999996999999999   0.5916666666011235 1              
   0.4999995500000000   0.4999996999999999   0.7916666666011236 1              
   0.4999995500000000   0.4999996999999999   0.9916666666011237 1              
   0.4999995960000000   0.4999997640000000   0.1959435672003746 1              
   0.4999995960000000   0.4999997640000000   0.3959435672003746 1              
   0.4999995960000000   0.4999997640000000   0.5959435672003747 1              
   0.4999995960000000   0.4999997640000000   0.7959435672003746 1              
   0.4999995960000000   0.4999997640000000   0.9959435672003747 1              
%endblock AtomicCoordinatesAndAtomicSpecies                                    
 
UseSaveData              F     # Default value
MD.UseSaveXV              F     # Default value
MD.UseSaveZM              F     # Default value
WriteCoorInitial              T     # Default value
MD.TypeOfRun     none     # Default value
MaxBondDistance          6.000000000     Bohr     # Default value
Output-Structure-Only              F     # Default value
SpinPolarized              F     # Default value
NonCollinearSpin              F     # Default value
LongOutput              F     # Default value
WriteDenchar              F     # Default value
WriteMullikenPop              0     # Default value
WriteHirshfeldPop              F     # Default value
WriteVoronoiPop              F     # Default value
PartialChargesAtEveryGeometry              F     # Default value
PartialChargesAtEveryScfStep              F     # Default value
MeshCutoff          200.0000000             Ry
# Above item originally: MeshCutoff          200.0000000     Ry        
NetCharge          0.000000000         # Default value
MaxSCFIterations                      200
SCFMustConverge              F     # Default value
DM.NumberPulay                        3
DM.NumberBroyden              0     # Default value
DM.FIRE.Mixing              F     # Default value
DM.MixSCF1              F     # Default value
DM.PulayOnFile              F
DM.Pulay.Avoid.First.After.Kick              F     # Default value
DM.MixingWeight         0.1000000000    
DM.OccupancyTolerance         0.1000000000E-11     # Default value
DM.NumberKick              0     # Default value
DM.KickMixingWeight         0.5000000000         # Default value
DM.Tolerance         0.1000000000E-05
DM.RequireEnergyConvergence              F     # Default value
DM.EnergyTolerance         0.7349806700E-05 Ry     # Default value
DM.RequireHarrisConvergence              F     # Default value
DM.HarrisTolerance         0.7349806700E-05 Ry     # Default value
UseSaveData              F     # Default value
DM.UseSaveDM              F     # Default value
NeglNonOverlapInt              F
SolutionMethod     Diagon                                                                                                                              
Diag.DivideAndConquer              T     # Default value
Diag.Memory          1.000000000         # Default value
ElectronicTemperature         0.1900069269E-02         Ry
# Above item originally: ElectronicTemperature          300.0000000     K         
FixSpin              F     # Default value
ON.MaxNumIter           1000     # Default value
ON.etol         0.1000000000E-07     # Default value
ON.eta          0.000000000     Ry     # Default value
ON.eta_alpha          0.000000000     Ry     # Default value
ON.eta_beta          0.000000000     Ry     # Default value
On.RcLWF          9.500000000     Bohr     # Default value
ON.UseSaveLWF              F     # Default value
ON.functional     kim     # Default value
ON.ChemicalPotentialUse              F     # Default value
ON.ChemicalPotential              F     # Default value
ON.ChemicalPotentialRc          9.500000000     Bohr     # Default value
ON.ChemicalPotentialTemperature         0.5000000000E-01 Ry     # Default value
ON.ChemicalPotentialOrder            100     # Default value
MD.VariableCell              F     # Default value
MD.TypeOfRun     verlet     # Default value
MD.NumCGsteps              0     # Default value
MD.MaxCGDispl         0.2000000000     Bohr     # Default value
MD.MaxForceTol         0.1555740000E-02 Ry/Bohr     # Default value
MD.MaxStressTol         0.6797730000E-04 Ry/Bohr**3     # Default value
MD.InitialTimeStep              1     # Default value
MD.FinalTimeStep              1     # Default value
MD.LengthTimeStep          1.000000000     fs     # Default value
MD.Quench              F     # Default value
MD.FireQuench              F     # Default value
MD.InitialTemperature          0.000000000     K     # Default value
MD.TargetTemperature          0.000000000     K     # Default value
MD.TargetPressure          0.000000000     Ry/Bohr**3     # Default value
MD.NoseMass          100.0000000     Ry*fs**2     # Default value
MD.ParrinelloRahmanMass          100.0000000     Ry*fs**2     # Default value
MD.AnnealOption     TemperatureAndPressure     # Default value
MD.TauRelax          100.0000000     fs     # Default value
MD.BulkModulus         0.6797730000E-02 Ry/Bohr**3     # Default value
MD.FCDispl         0.4000000000E-01 Bohr     # Default value
MD.FCfirst              1     # Default value
MD.FClast            240     # Default value
UseSpatialDecomposition              F     # Default value
UseDomainDecomposition              F     # Default value
Harris_functional              F     # Default value
WriteKpoints              F     # Default value
WriteForces              F     # Default value
WriteDM              T     # Default value
WriteDM.NetCDF              T     # Default value
WriteDM.History.NetCDF              F     # Default value
WriteDMHS.NetCDF              T     # Default value
WriteDMHS.History.NetCDF              F     # Default value
SCF.Read.Charge.NetCDF              F     # Default value
SCF.Read.Deformation.Charge.NetCDF              F     # Default value
SaveInitialChargeDensity              F     # Default value
UseNewDiagk              F     # Default value
WriteBands              F     # Default value
WriteKbands              F     # Default value
WriteEigenvalues              F     # Default value
WriteCoorStep              F     # Default value
WriteMDhistory              F     # Default value
WriteMDXmol              F     # Default value
UseSaveData              F     # Default value
SaveHS              F     # Default value
FixAuxiliaryCell              F     # Default value
NaiveAuxiliaryCell              F     # Default value
ReInitialiseDM              T     # Default value
DM.AllowReuse              T     # Default value
DM.AllowExtrapolation              T     # Default value
MullikenInSCF              F     # Default value
WarningMinimumAtomicDistance          1.000000000     Bohr     # Default value
BornCharge              F     # Default value
ChangeKgridInMD              F     # Default value
Diag.ParallelOverK              F     # Default value
MD.RelaxCellOnly              F     # Default value
MD.RemoveIntraMolecularPressure              F     # Default value
COOP.Write              F     # Default value
SaveRho              F     # Default value
SaveDeltaRho              F     # Default value
SaveElectrostaticPotential              F     # Default value
SaveNeutralAtomPotential              F     # Default value
SaveTotalPotential              F     # Default value
SaveIonicCharge              F     # Default value
SaveBaderCharge              F     # Default value
SaveTotalCharge              F     # Default value
RcSpatial          0.000000000     Bohr     # Default value
ProcessorGridX              1     # Default value
ProcessorGridY              1     # Default value
ProcessorGridZ              1     # Default value
processorY              2     # Default value
blocksize             24     # Default value
NumberOfEigenStates           3120     # Default value
TimeReversalSymmetryForKpoints              T     # Default value

%block kgrid_Monkhorst_Pack                                                    
   1    0    0    0                                                            
   0    1    0    0                                                            
   0    0    1    0                                                            
%endblock kgrid_Monkhorst_Pack                                                 
 
WFS.EnergyMin        -0.1797693135+309 Ry     # Default value
WFS.EnergyMax         0.1797693135+309 Ry     # Default value
LongOutput              F     # Default value
WriteWaveFunctions              F     # Default value
WriteWaveDebug              F     # Default value
ForceAuxCell              F     # Default value
AtomicCoordinatesFormat     Fractional                                                                                                                          
AtomCoorFormatOut     Fractional                 # Default value
LatticeConstant          1.000000000           Bohr
# Above item originally: LatticeConstant          1.000000000     Bohr      
Harris_functional              F     # Default value
MeshSubDivisions              2     # Default value
LatticeConstant          1.000000000           Bohr
# Above item originally: LatticeConstant          1.000000000     Bohr      

%block LatticeVectors                                                          
   37.7945227409938056    0.0000000000000000    0.0000000000000000             
    0.0000000000000000   37.7945227409938056    0.0000000000000000             
    0.0000000000000000    0.0000000000000000  605.4682543107206811             
%endblock LatticeVectors                                                       
 

%block LatticeVectors                                                          
   37.7945227409938056    0.0000000000000000    0.0000000000000000             
    0.0000000000000000   37.7945227409938056    0.0000000000000000             
    0.0000000000000000    0.0000000000000000  605.4682543107206811             
%endblock LatticeVectors                                                       
 
DirectPhi              F     # Default value
SimulateDoping              F     # Default value
SlabDipoleCorrection              F     # Default value
Diag.ParallelOverK              F     # Default value
LatticeConstant          1.000000000           Bohr
# Above item originally: LatticeConstant          1.000000000     Bohr      

%block LatticeVectors                                                          
   37.7945227409938056    0.0000000000000000    0.0000000000000000             
    0.0000000000000000   37.7945227409938056    0.0000000000000000             
    0.0000000000000000    0.0000000000000000  605.4682543107206811             
%endblock LatticeVectors                                                       
 

%block LatticeVectors                                                          
   37.7945227409938056    0.0000000000000000    0.0000000000000000             
    0.0000000000000000   37.7945227409938056    0.0000000000000000             
    0.0000000000000000    0.0000000000000000  605.4682543107206811             
%endblock LatticeVectors                                                       
 
Diag.AllInOne              F     # Default value
Diag.DivideAndConquer              T     # Default value
Diag.NoExpert              F     # Default value
Diag.PreRotate              F     # Default value
Diag.Use2D              T     # Default value
SingleExcitation              F     # Default value
OccupationFunction     FD     # Default value
OccupationFunction     FD     # Default value
DM.FormattedFiles              F     # Default value
DM.FormattedInput              F     # Default value
DM.FormattedOutput              F     # Default value
WriteCoorXmol              F     # Default value
WriteCoorCerius              F     # Default value
BasisPressure         0.2000000000     GPa     # Default value
OpticalCalculation              F     # Default value
