phonopy:
  version: 2.1.2
  calculator: vasp
  frequency_unit_conversion_factor: 15.633302
  configuration:
    dim: "1 1 5"
    create_displacements: ".true."

physical_unit:
  atomic_mass: "AMU"
  length: "Angstrom"
  force_constants: "eV/Angstrom^2"

supercell_matrix:
- [   1,   0,   0 ]
- [   0,   1,   0 ]
- [   0,   0,   5 ]

space_group:
  type: "P4/mmm"
  number: 123
  Hall_symbol: "-P 4 2"

primitive_cell:
  lattice:
  - [    20.000000000000000,     0.000000000000000,     0.000000000000000 ] # a
  - [     0.000000000000000,    20.000000000000000,     0.000000000000000 ] # b
  - [     0.000000000000000,     0.000000000000000,    64.079999999999998 ] # c
  points:
  - symbol: C  # 1
    coordinates: [  0.499999550000000,  0.499999700000000,  0.000000000000000 ]
    mass: 12.010700
  - symbol: C  # 2
    coordinates: [  0.499999595500000,  0.499999764500000,  0.021384502652934 ]
    mass: 12.010700
  - symbol: C  # 3
    coordinates: [  0.499999550000000,  0.499999700000000,  0.041666666666667 ]
    mass: 12.010700
  - symbol: C  # 4
    coordinates: [  0.499999595500000,  0.499999764500000,  0.063051169319600 ]
    mass: 12.010700
  - symbol: C  # 5
    coordinates: [  0.499999550000000,  0.499999700000000,  0.083333333333333 ]
    mass: 12.010700
  - symbol: C  # 6
    coordinates: [  0.499999595500000,  0.499999764500000,  0.104717835986267 ]
    mass: 12.010700
  - symbol: C  # 7
    coordinates: [  0.499999550000000,  0.499999700000000,  0.125000000000000 ]
    mass: 12.010700
  - symbol: C  # 8
    coordinates: [  0.499999595500000,  0.499999764500000,  0.146384502652934 ]
    mass: 12.010700
  - symbol: C  # 9
    coordinates: [  0.499999550000000,  0.499999700000000,  0.166666666666667 ]
    mass: 12.010700
  - symbol: C  # 10
    coordinates: [  0.499999595500000,  0.499999764500000,  0.188051169319601 ]
    mass: 12.010700
  - symbol: C  # 11
    coordinates: [  0.499999550000000,  0.499999700000000,  0.208333333333333 ]
    mass: 12.010700
  - symbol: C  # 12
    coordinates: [  0.499999595500000,  0.499999764500000,  0.229717835986267 ]
    mass: 12.010700
  - symbol: C  # 13
    coordinates: [  0.499999550000000,  0.499999700000000,  0.250000000000000 ]
    mass: 12.010700
  - symbol: C  # 14
    coordinates: [  0.499999595500000,  0.499999764500000,  0.271384502652934 ]
    mass: 12.010700
  - symbol: C  # 15
    coordinates: [  0.499999550000000,  0.499999700000000,  0.291666666666667 ]
    mass: 12.010700
  - symbol: C  # 16
    coordinates: [  0.499999595500000,  0.499999764500000,  0.313051169319601 ]
    mass: 12.010700
  - symbol: C  # 17
    coordinates: [  0.499999550000000,  0.499999700000000,  0.333333333333333 ]
    mass: 12.010700
  - symbol: C  # 18
    coordinates: [  0.499999595500000,  0.499999764500000,  0.354717835986267 ]
    mass: 12.010700
  - symbol: C  # 19
    coordinates: [  0.499999550000000,  0.499999700000000,  0.375000000000000 ]
    mass: 12.010700
  - symbol: C  # 20
    coordinates: [  0.499999595500000,  0.499999764500000,  0.396384502652934 ]
    mass: 12.010700
  - symbol: C  # 21
    coordinates: [  0.499999550000000,  0.499999700000000,  0.416666666666667 ]
    mass: 12.010700
  - symbol: C  # 22
    coordinates: [  0.499999595500000,  0.499999764500000,  0.438051169319600 ]
    mass: 12.010700
  - symbol: C  # 23
    coordinates: [  0.499999550000000,  0.499999700000000,  0.458333333333333 ]
    mass: 12.010700
  - symbol: C  # 24
    coordinates: [  0.499999595500000,  0.499999764500000,  0.479717835986267 ]
    mass: 12.010700
  - symbol: C  # 25
    coordinates: [  0.499999550000000,  0.499999700000000,  0.500000000000000 ]
    mass: 12.010700
  - symbol: C  # 26
    coordinates: [  0.499999595500000,  0.499999764500000,  0.521384502652934 ]
    mass: 12.010700
  - symbol: C  # 27
    coordinates: [  0.499999550000000,  0.499999700000000,  0.541666666666667 ]
    mass: 12.010700
  - symbol: C  # 28
    coordinates: [  0.499999595500000,  0.499999764500000,  0.563051169319600 ]
    mass: 12.010700
  - symbol: C  # 29
    coordinates: [  0.499999550000000,  0.499999700000000,  0.583333333333333 ]
    mass: 12.010700
  - symbol: C  # 30
    coordinates: [  0.499999595500000,  0.499999764500000,  0.604717835986267 ]
    mass: 12.010700
  - symbol: C  # 31
    coordinates: [  0.499999550000000,  0.499999700000000,  0.625000000000000 ]
    mass: 12.010700
  - symbol: C  # 32
    coordinates: [  0.499999595500000,  0.499999764500000,  0.646384502652934 ]
    mass: 12.010700
  - symbol: C  # 33
    coordinates: [  0.499999550000000,  0.499999700000000,  0.666666666666667 ]
    mass: 12.010700
  - symbol: C  # 34
    coordinates: [  0.499999595500000,  0.499999764500000,  0.688051169319601 ]
    mass: 12.010700
  - symbol: C  # 35
    coordinates: [  0.499999550000000,  0.499999700000000,  0.708333333333333 ]
    mass: 12.010700
  - symbol: C  # 36
    coordinates: [  0.499999595500000,  0.499999764500000,  0.729717835986267 ]
    mass: 12.010700
  - symbol: C  # 37
    coordinates: [  0.499999550000000,  0.499999700000000,  0.750000000000000 ]
    mass: 12.010700
  - symbol: C  # 38
    coordinates: [  0.499999595500000,  0.499999764500000,  0.771384502652934 ]
    mass: 12.010700
  - symbol: C  # 39
    coordinates: [  0.499999550000000,  0.499999700000000,  0.791666666666667 ]
    mass: 12.010700
  - symbol: C  # 40
    coordinates: [  0.499999595500000,  0.499999764500000,  0.813051169319601 ]
    mass: 12.010700
  - symbol: C  # 41
    coordinates: [  0.499999550000000,  0.499999700000000,  0.833333333333333 ]
    mass: 12.010700
  - symbol: C  # 42
    coordinates: [  0.499999595500000,  0.499999764500000,  0.854717835986267 ]
    mass: 12.010700
  - symbol: C  # 43
    coordinates: [  0.499999550000000,  0.499999700000000,  0.875000000000000 ]
    mass: 12.010700
  - symbol: C  # 44
    coordinates: [  0.499999595500000,  0.499999764500000,  0.896384502652934 ]
    mass: 12.010700
  - symbol: C  # 45
    coordinates: [  0.499999550000000,  0.499999700000000,  0.916666666666667 ]
    mass: 12.010700
  - symbol: C  # 46
    coordinates: [  0.499999595500000,  0.499999764500000,  0.938051169319600 ]
    mass: 12.010700
  - symbol: C  # 47
    coordinates: [  0.499999550000000,  0.499999700000000,  0.958333333333333 ]
    mass: 12.010700
  - symbol: C  # 48
    coordinates: [  0.499999595500000,  0.499999764500000,  0.979717835986267 ]
    mass: 12.010700
  reciprocal_lattice: # without 2pi
  - [     0.050000000000000,     0.000000000000000,     0.000000000000000 ] # a*
  - [     0.000000000000000,     0.050000000000000,     0.000000000000000 ] # b*
  - [     0.000000000000000,     0.000000000000000,     0.015605493133583 ] # c*

unit_cell:
  lattice:
  - [    20.000000000000000,     0.000000000000000,     0.000000000000000 ] # a
  - [     0.000000000000000,    20.000000000000000,     0.000000000000000 ] # b
  - [     0.000000000000000,     0.000000000000000,    64.079999999999998 ] # c
  points:
  - symbol: C  # 1
    coordinates: [  0.499999550000000,  0.499999700000000,  0.000000000000000 ]
    mass: 12.010700
    reduced_to: 1
  - symbol: C  # 2
    coordinates: [  0.499999595500000,  0.499999764500000,  0.021384502652934 ]
    mass: 12.010700
    reduced_to: 2
  - symbol: C  # 3
    coordinates: [  0.499999550000000,  0.499999700000000,  0.041666666666667 ]
    mass: 12.010700
    reduced_to: 3
  - symbol: C  # 4
    coordinates: [  0.499999595500000,  0.499999764500000,  0.063051169319600 ]
    mass: 12.010700
    reduced_to: 4
  - symbol: C  # 5
    coordinates: [  0.499999550000000,  0.499999700000000,  0.083333333333333 ]
    mass: 12.010700
    reduced_to: 5
  - symbol: C  # 6
    coordinates: [  0.499999595500000,  0.499999764500000,  0.104717835986267 ]
    mass: 12.010700
    reduced_to: 6
  - symbol: C  # 7
    coordinates: [  0.499999550000000,  0.499999700000000,  0.125000000000000 ]
    mass: 12.010700
    reduced_to: 7
  - symbol: C  # 8
    coordinates: [  0.499999595500000,  0.499999764500000,  0.146384502652934 ]
    mass: 12.010700
    reduced_to: 8
  - symbol: C  # 9
    coordinates: [  0.499999550000000,  0.499999700000000,  0.166666666666667 ]
    mass: 12.010700
    reduced_to: 9
  - symbol: C  # 10
    coordinates: [  0.499999595500000,  0.499999764500000,  0.188051169319601 ]
    mass: 12.010700
    reduced_to: 10
  - symbol: C  # 11
    coordinates: [  0.499999550000000,  0.499999700000000,  0.208333333333333 ]
    mass: 12.010700
    reduced_to: 11
  - symbol: C  # 12
    coordinates: [  0.499999595500000,  0.499999764500000,  0.229717835986267 ]
    mass: 12.010700
    reduced_to: 12
  - symbol: C  # 13
    coordinates: [  0.499999550000000,  0.499999700000000,  0.250000000000000 ]
    mass: 12.010700
    reduced_to: 13
  - symbol: C  # 14
    coordinates: [  0.499999595500000,  0.499999764500000,  0.271384502652934 ]
    mass: 12.010700
    reduced_to: 14
  - symbol: C  # 15
    coordinates: [  0.499999550000000,  0.499999700000000,  0.291666666666667 ]
    mass: 12.010700
    reduced_to: 15
  - symbol: C  # 16
    coordinates: [  0.499999595500000,  0.499999764500000,  0.313051169319601 ]
    mass: 12.010700
    reduced_to: 16
  - symbol: C  # 17
    coordinates: [  0.499999550000000,  0.499999700000000,  0.333333333333333 ]
    mass: 12.010700
    reduced_to: 17
  - symbol: C  # 18
    coordinates: [  0.499999595500000,  0.499999764500000,  0.354717835986267 ]
    mass: 12.010700
    reduced_to: 18
  - symbol: C  # 19
    coordinates: [  0.499999550000000,  0.499999700000000,  0.375000000000000 ]
    mass: 12.010700
    reduced_to: 19
  - symbol: C  # 20
    coordinates: [  0.499999595500000,  0.499999764500000,  0.396384502652934 ]
    mass: 12.010700
    reduced_to: 20
  - symbol: C  # 21
    coordinates: [  0.499999550000000,  0.499999700000000,  0.416666666666667 ]
    mass: 12.010700
    reduced_to: 21
  - symbol: C  # 22
    coordinates: [  0.499999595500000,  0.499999764500000,  0.438051169319600 ]
    mass: 12.010700
    reduced_to: 22
  - symbol: C  # 23
    coordinates: [  0.499999550000000,  0.499999700000000,  0.458333333333333 ]
    mass: 12.010700
    reduced_to: 23
  - symbol: C  # 24
    coordinates: [  0.499999595500000,  0.499999764500000,  0.479717835986267 ]
    mass: 12.010700
    reduced_to: 24
  - symbol: C  # 25
    coordinates: [  0.499999550000000,  0.499999700000000,  0.500000000000000 ]
    mass: 12.010700
    reduced_to: 25
  - symbol: C  # 26
    coordinates: [  0.499999595500000,  0.499999764500000,  0.521384502652934 ]
    mass: 12.010700
    reduced_to: 26
  - symbol: C  # 27
    coordinates: [  0.499999550000000,  0.499999700000000,  0.541666666666667 ]
    mass: 12.010700
    reduced_to: 27
  - symbol: C  # 28
    coordinates: [  0.499999595500000,  0.499999764500000,  0.563051169319600 ]
    mass: 12.010700
    reduced_to: 28
  - symbol: C  # 29
    coordinates: [  0.499999550000000,  0.499999700000000,  0.583333333333333 ]
    mass: 12.010700
    reduced_to: 29
  - symbol: C  # 30
    coordinates: [  0.499999595500000,  0.499999764500000,  0.604717835986267 ]
    mass: 12.010700
    reduced_to: 30
  - symbol: C  # 31
    coordinates: [  0.499999550000000,  0.499999700000000,  0.625000000000000 ]
    mass: 12.010700
    reduced_to: 31
  - symbol: C  # 32
    coordinates: [  0.499999595500000,  0.499999764500000,  0.646384502652934 ]
    mass: 12.010700
    reduced_to: 32
  - symbol: C  # 33
    coordinates: [  0.499999550000000,  0.499999700000000,  0.666666666666667 ]
    mass: 12.010700
    reduced_to: 33
  - symbol: C  # 34
    coordinates: [  0.499999595500000,  0.499999764500000,  0.688051169319601 ]
    mass: 12.010700
    reduced_to: 34
  - symbol: C  # 35
    coordinates: [  0.499999550000000,  0.499999700000000,  0.708333333333333 ]
    mass: 12.010700
    reduced_to: 35
  - symbol: C  # 36
    coordinates: [  0.499999595500000,  0.499999764500000,  0.729717835986267 ]
    mass: 12.010700
    reduced_to: 36
  - symbol: C  # 37
    coordinates: [  0.499999550000000,  0.499999700000000,  0.750000000000000 ]
    mass: 12.010700
    reduced_to: 37
  - symbol: C  # 38
    coordinates: [  0.499999595500000,  0.499999764500000,  0.771384502652934 ]
    mass: 12.010700
    reduced_to: 38
  - symbol: C  # 39
    coordinates: [  0.499999550000000,  0.499999700000000,  0.791666666666667 ]
    mass: 12.010700
    reduced_to: 39
  - symbol: C  # 40
    coordinates: [  0.499999595500000,  0.499999764500000,  0.813051169319601 ]
    mass: 12.010700
    reduced_to: 40
  - symbol: C  # 41
    coordinates: [  0.499999550000000,  0.499999700000000,  0.833333333333333 ]
    mass: 12.010700
    reduced_to: 41
  - symbol: C  # 42
    coordinates: [  0.499999595500000,  0.499999764500000,  0.854717835986267 ]
    mass: 12.010700
    reduced_to: 42
  - symbol: C  # 43
    coordinates: [  0.499999550000000,  0.499999700000000,  0.875000000000000 ]
    mass: 12.010700
    reduced_to: 43
  - symbol: C  # 44
    coordinates: [  0.499999595500000,  0.499999764500000,  0.896384502652934 ]
    mass: 12.010700
    reduced_to: 44
  - symbol: C  # 45
    coordinates: [  0.499999550000000,  0.499999700000000,  0.916666666666667 ]
    mass: 12.010700
    reduced_to: 45
  - symbol: C  # 46
    coordinates: [  0.499999595500000,  0.499999764500000,  0.938051169319600 ]
    mass: 12.010700
    reduced_to: 46
  - symbol: C  # 47
    coordinates: [  0.499999550000000,  0.499999700000000,  0.958333333333333 ]
    mass: 12.010700
    reduced_to: 47
  - symbol: C  # 48
    coordinates: [  0.499999595500000,  0.499999764500000,  0.979717835986267 ]
    mass: 12.010700
    reduced_to: 48

supercell:
  lattice:
  - [    20.000000000000000,     0.000000000000000,     0.000000000000000 ] # a
  - [     0.000000000000000,    20.000000000000000,     0.000000000000000 ] # b
  - [     0.000000000000000,     0.000000000000000,   320.399999999999977 ] # c
  points:
  - symbol: C  # 1
    coordinates: [  0.499999550000000,  0.499999700000000,  0.000000000000000 ]
    mass: 12.010700
    reduced_to: 1
  - symbol: C  # 2
    coordinates: [  0.499999550000000,  0.499999700000000,  0.200000000000000 ]
    mass: 12.010700
    reduced_to: 1
  - symbol: C  # 3
    coordinates: [  0.499999550000000,  0.499999700000000,  0.400000000000000 ]
    mass: 12.010700
    reduced_to: 1
  - symbol: C  # 4
    coordinates: [  0.499999550000000,  0.499999700000000,  0.600000000000000 ]
    mass: 12.010700
    reduced_to: 1
  - symbol: C  # 5
    coordinates: [  0.499999550000000,  0.499999700000000,  0.800000000000000 ]
    mass: 12.010700
    reduced_to: 1
  - symbol: C  # 6
    coordinates: [  0.499999595500000,  0.499999764500000,  0.004276900530587 ]
    mass: 12.010700
    reduced_to: 6
  - symbol: C  # 7
    coordinates: [  0.499999595500000,  0.499999764500000,  0.204276900530587 ]
    mass: 12.010700
    reduced_to: 6
  - symbol: C  # 8
    coordinates: [  0.499999595500000,  0.499999764500000,  0.404276900530587 ]
    mass: 12.010700
    reduced_to: 6
  - symbol: C  # 9
    coordinates: [  0.499999595500000,  0.499999764500000,  0.604276900530587 ]
    mass: 12.010700
    reduced_to: 6
  - symbol: C  # 10
    coordinates: [  0.499999595500000,  0.499999764500000,  0.804276900530587 ]
    mass: 12.010700
    reduced_to: 6
  - symbol: C  # 11
    coordinates: [  0.499999550000000,  0.499999700000000,  0.008333333333333 ]
    mass: 12.010700
    reduced_to: 11
  - symbol: C  # 12
    coordinates: [  0.499999550000000,  0.499999700000000,  0.208333333333333 ]
    mass: 12.010700
    reduced_to: 11
  - symbol: C  # 13
    coordinates: [  0.499999550000000,  0.499999700000000,  0.408333333333333 ]
    mass: 12.010700
    reduced_to: 11
  - symbol: C  # 14
    coordinates: [  0.499999550000000,  0.499999700000000,  0.608333333333333 ]
    mass: 12.010700
    reduced_to: 11
  - symbol: C  # 15
    coordinates: [  0.499999550000000,  0.499999700000000,  0.808333333333333 ]
    mass: 12.010700
    reduced_to: 11
  - symbol: C  # 16
    coordinates: [  0.499999595500000,  0.499999764500000,  0.012610233863920 ]
    mass: 12.010700
    reduced_to: 16
  - symbol: C  # 17
    coordinates: [  0.499999595500000,  0.499999764500000,  0.212610233863920 ]
    mass: 12.010700
    reduced_to: 16
  - symbol: C  # 18
    coordinates: [  0.499999595500000,  0.499999764500000,  0.412610233863920 ]
    mass: 12.010700
    reduced_to: 16
  - symbol: C  # 19
    coordinates: [  0.499999595500000,  0.499999764500000,  0.612610233863920 ]
    mass: 12.010700
    reduced_to: 16
  - symbol: C  # 20
    coordinates: [  0.499999595500000,  0.499999764500000,  0.812610233863920 ]
    mass: 12.010700
    reduced_to: 16
  - symbol: C  # 21
    coordinates: [  0.499999550000000,  0.499999700000000,  0.016666666666667 ]
    mass: 12.010700
    reduced_to: 21
  - symbol: C  # 22
    coordinates: [  0.499999550000000,  0.499999700000000,  0.216666666666667 ]
    mass: 12.010700
    reduced_to: 21
  - symbol: C  # 23
    coordinates: [  0.499999550000000,  0.499999700000000,  0.416666666666667 ]
    mass: 12.010700
    reduced_to: 21
  - symbol: C  # 24
    coordinates: [  0.499999550000000,  0.499999700000000,  0.616666666666667 ]
    mass: 12.010700
    reduced_to: 21
  - symbol: C  # 25
    coordinates: [  0.499999550000000,  0.499999700000000,  0.816666666666667 ]
    mass: 12.010700
    reduced_to: 21
  - symbol: C  # 26
    coordinates: [  0.499999595500000,  0.499999764500000,  0.020943567197253 ]
    mass: 12.010700
    reduced_to: 26
  - symbol: C  # 27
    coordinates: [  0.499999595500000,  0.499999764500000,  0.220943567197253 ]
    mass: 12.010700
    reduced_to: 26
  - symbol: C  # 28
    coordinates: [  0.499999595500000,  0.499999764500000,  0.420943567197253 ]
    mass: 12.010700
    reduced_to: 26
  - symbol: C  # 29
    coordinates: [  0.499999595500000,  0.499999764500000,  0.620943567197254 ]
    mass: 12.010700
    reduced_to: 26
  - symbol: C  # 30
    coordinates: [  0.499999595500000,  0.499999764500000,  0.820943567197253 ]
    mass: 12.010700
    reduced_to: 26
  - symbol: C  # 31
    coordinates: [  0.499999550000000,  0.499999700000000,  0.025000000000000 ]
    mass: 12.010700
    reduced_to: 31
  - symbol: C  # 32
    coordinates: [  0.499999550000000,  0.499999700000000,  0.225000000000000 ]
    mass: 12.010700
    reduced_to: 31
  - symbol: C  # 33
    coordinates: [  0.499999550000000,  0.499999700000000,  0.425000000000000 ]
    mass: 12.010700
    reduced_to: 31
  - symbol: C  # 34
    coordinates: [  0.499999550000000,  0.499999700000000,  0.625000000000000 ]
    mass: 12.010700
    reduced_to: 31
  - symbol: C  # 35
    coordinates: [  0.499999550000000,  0.499999700000000,  0.825000000000000 ]
    mass: 12.010700
    reduced_to: 31
  - symbol: C  # 36
    coordinates: [  0.499999595500000,  0.499999764500000,  0.029276900530587 ]
    mass: 12.010700
    reduced_to: 36
  - symbol: C  # 37
    coordinates: [  0.499999595500000,  0.499999764500000,  0.229276900530587 ]
    mass: 12.010700
    reduced_to: 36
  - symbol: C  # 38
    coordinates: [  0.499999595500000,  0.499999764500000,  0.429276900530587 ]
    mass: 12.010700
    reduced_to: 36
  - symbol: C  # 39
    coordinates: [  0.499999595500000,  0.499999764500000,  0.629276900530587 ]
    mass: 12.010700
    reduced_to: 36
  - symbol: C  # 40
    coordinates: [  0.499999595500000,  0.499999764500000,  0.829276900530587 ]
    mass: 12.010700
    reduced_to: 36
  - symbol: C  # 41
    coordinates: [  0.499999550000000,  0.499999700000000,  0.033333333333333 ]
    mass: 12.010700
    reduced_to: 41
  - symbol: C  # 42
    coordinates: [  0.499999550000000,  0.499999700000000,  0.233333333333333 ]
    mass: 12.010700
    reduced_to: 41
  - symbol: C  # 43
    coordinates: [  0.499999550000000,  0.499999700000000,  0.433333333333333 ]
    mass: 12.010700
    reduced_to: 41
  - symbol: C  # 44
    coordinates: [  0.499999550000000,  0.499999700000000,  0.633333333333333 ]
    mass: 12.010700
    reduced_to: 41
  - symbol: C  # 45
    coordinates: [  0.499999550000000,  0.499999700000000,  0.833333333333333 ]
    mass: 12.010700
    reduced_to: 41
  - symbol: C  # 46
    coordinates: [  0.499999595500000,  0.499999764500000,  0.037610233863920 ]
    mass: 12.010700
    reduced_to: 46
  - symbol: C  # 47
    coordinates: [  0.499999595500000,  0.499999764500000,  0.237610233863920 ]
    mass: 12.010700
    reduced_to: 46
  - symbol: C  # 48
    coordinates: [  0.499999595500000,  0.499999764500000,  0.437610233863920 ]
    mass: 12.010700
    reduced_to: 46
  - symbol: C  # 49
    coordinates: [  0.499999595500000,  0.499999764500000,  0.637610233863920 ]
    mass: 12.010700
    reduced_to: 46
  - symbol: C  # 50
    coordinates: [  0.499999595500000,  0.499999764500000,  0.837610233863920 ]
    mass: 12.010700
    reduced_to: 46
  - symbol: C  # 51
    coordinates: [  0.499999550000000,  0.499999700000000,  0.041666666666667 ]
    mass: 12.010700
    reduced_to: 51
  - symbol: C  # 52
    coordinates: [  0.499999550000000,  0.499999700000000,  0.241666666666667 ]
    mass: 12.010700
    reduced_to: 51
  - symbol: C  # 53
    coordinates: [  0.499999550000000,  0.499999700000000,  0.441666666666667 ]
    mass: 12.010700
    reduced_to: 51
  - symbol: C  # 54
    coordinates: [  0.499999550000000,  0.499999700000000,  0.641666666666667 ]
    mass: 12.010700
    reduced_to: 51
  - symbol: C  # 55
    coordinates: [  0.499999550000000,  0.499999700000000,  0.841666666666667 ]
    mass: 12.010700
    reduced_to: 51
  - symbol: C  # 56
    coordinates: [  0.499999595500000,  0.499999764500000,  0.045943567197253 ]
    mass: 12.010700
    reduced_to: 56
  - symbol: C  # 57
    coordinates: [  0.499999595500000,  0.499999764500000,  0.245943567197253 ]
    mass: 12.010700
    reduced_to: 56
  - symbol: C  # 58
    coordinates: [  0.499999595500000,  0.499999764500000,  0.445943567197253 ]
    mass: 12.010700
    reduced_to: 56
  - symbol: C  # 59
    coordinates: [  0.499999595500000,  0.499999764500000,  0.645943567197254 ]
    mass: 12.010700
    reduced_to: 56
  - symbol: C  # 60
    coordinates: [  0.499999595500000,  0.499999764500000,  0.845943567197253 ]
    mass: 12.010700
    reduced_to: 56
  - symbol: C  # 61
    coordinates: [  0.499999550000000,  0.499999700000000,  0.050000000000000 ]
    mass: 12.010700
    reduced_to: 61
  - symbol: C  # 62
    coordinates: [  0.499999550000000,  0.499999700000000,  0.250000000000000 ]
    mass: 12.010700
    reduced_to: 61
  - symbol: C  # 63
    coordinates: [  0.499999550000000,  0.499999700000000,  0.450000000000000 ]
    mass: 12.010700
    reduced_to: 61
  - symbol: C  # 64
    coordinates: [  0.499999550000000,  0.499999700000000,  0.650000000000000 ]
    mass: 12.010700
    reduced_to: 61
  - symbol: C  # 65
    coordinates: [  0.499999550000000,  0.499999700000000,  0.850000000000000 ]
    mass: 12.010700
    reduced_to: 61
  - symbol: C  # 66
    coordinates: [  0.499999595500000,  0.499999764500000,  0.054276900530587 ]
    mass: 12.010700
    reduced_to: 66
  - symbol: C  # 67
    coordinates: [  0.499999595500000,  0.499999764500000,  0.254276900530587 ]
    mass: 12.010700
    reduced_to: 66
  - symbol: C  # 68
    coordinates: [  0.499999595500000,  0.499999764500000,  0.454276900530587 ]
    mass: 12.010700
    reduced_to: 66
  - symbol: C  # 69
    coordinates: [  0.499999595500000,  0.499999764500000,  0.654276900530587 ]
    mass: 12.010700
    reduced_to: 66
  - symbol: C  # 70
    coordinates: [  0.499999595500000,  0.499999764500000,  0.854276900530587 ]
    mass: 12.010700
    reduced_to: 66
  - symbol: C  # 71
    coordinates: [  0.499999550000000,  0.499999700000000,  0.058333333333333 ]
    mass: 12.010700
    reduced_to: 71
  - symbol: C  # 72
    coordinates: [  0.499999550000000,  0.499999700000000,  0.258333333333333 ]
    mass: 12.010700
    reduced_to: 71
  - symbol: C  # 73
    coordinates: [  0.499999550000000,  0.499999700000000,  0.458333333333333 ]
    mass: 12.010700
    reduced_to: 71
  - symbol: C  # 74
    coordinates: [  0.499999550000000,  0.499999700000000,  0.658333333333333 ]
    mass: 12.010700
    reduced_to: 71
  - symbol: C  # 75
    coordinates: [  0.499999550000000,  0.499999700000000,  0.858333333333333 ]
    mass: 12.010700
    reduced_to: 71
  - symbol: C  # 76
    coordinates: [  0.499999595500000,  0.499999764500000,  0.062610233863920 ]
    mass: 12.010700
    reduced_to: 76
  - symbol: C  # 77
    coordinates: [  0.499999595500000,  0.499999764500000,  0.262610233863920 ]
    mass: 12.010700
    reduced_to: 76
  - symbol: C  # 78
    coordinates: [  0.499999595500000,  0.499999764500000,  0.462610233863920 ]
    mass: 12.010700
    reduced_to: 76
  - symbol: C  # 79
    coordinates: [  0.499999595500000,  0.499999764500000,  0.662610233863920 ]
    mass: 12.010700
    reduced_to: 76
  - symbol: C  # 80
    coordinates: [  0.499999595500000,  0.499999764500000,  0.862610233863920 ]
    mass: 12.010700
    reduced_to: 76
  - symbol: C  # 81
    coordinates: [  0.499999550000000,  0.499999700000000,  0.066666666666667 ]
    mass: 12.010700
    reduced_to: 81
  - symbol: C  # 82
    coordinates: [  0.499999550000000,  0.499999700000000,  0.266666666666667 ]
    mass: 12.010700
    reduced_to: 81
  - symbol: C  # 83
    coordinates: [  0.499999550000000,  0.499999700000000,  0.466666666666667 ]
    mass: 12.010700
    reduced_to: 81
  - symbol: C  # 84
    coordinates: [  0.499999550000000,  0.499999700000000,  0.666666666666667 ]
    mass: 12.010700
    reduced_to: 81
  - symbol: C  # 85
    coordinates: [  0.499999550000000,  0.499999700000000,  0.866666666666667 ]
    mass: 12.010700
    reduced_to: 81
  - symbol: C  # 86
    coordinates: [  0.499999595500000,  0.499999764500000,  0.070943567197253 ]
    mass: 12.010700
    reduced_to: 86
  - symbol: C  # 87
    coordinates: [  0.499999595500000,  0.499999764500000,  0.270943567197253 ]
    mass: 12.010700
    reduced_to: 86
  - symbol: C  # 88
    coordinates: [  0.499999595500000,  0.499999764500000,  0.470943567197253 ]
    mass: 12.010700
    reduced_to: 86
  - symbol: C  # 89
    coordinates: [  0.499999595500000,  0.499999764500000,  0.670943567197253 ]
    mass: 12.010700
    reduced_to: 86
  - symbol: C  # 90
    coordinates: [  0.499999595500000,  0.499999764500000,  0.870943567197253 ]
    mass: 12.010700
    reduced_to: 86
  - symbol: C  # 91
    coordinates: [  0.499999550000000,  0.499999700000000,  0.075000000000000 ]
    mass: 12.010700
    reduced_to: 91
  - symbol: C  # 92
    coordinates: [  0.499999550000000,  0.499999700000000,  0.275000000000000 ]
    mass: 12.010700
    reduced_to: 91
  - symbol: C  # 93
    coordinates: [  0.499999550000000,  0.499999700000000,  0.475000000000000 ]
    mass: 12.010700
    reduced_to: 91
  - symbol: C  # 94
    coordinates: [  0.499999550000000,  0.499999700000000,  0.675000000000000 ]
    mass: 12.010700
    reduced_to: 91
  - symbol: C  # 95
    coordinates: [  0.499999550000000,  0.499999700000000,  0.875000000000000 ]
    mass: 12.010700
    reduced_to: 91
  - symbol: C  # 96
    coordinates: [  0.499999595500000,  0.499999764500000,  0.079276900530587 ]
    mass: 12.010700
    reduced_to: 96
  - symbol: C  # 97
    coordinates: [  0.499999595500000,  0.499999764500000,  0.279276900530587 ]
    mass: 12.010700
    reduced_to: 96
  - symbol: C  # 98
    coordinates: [  0.499999595500000,  0.499999764500000,  0.479276900530587 ]
    mass: 12.010700
    reduced_to: 96
  - symbol: C  # 99
    coordinates: [  0.499999595500000,  0.499999764500000,  0.679276900530587 ]
    mass: 12.010700
    reduced_to: 96
  - symbol: C  # 100
    coordinates: [  0.499999595500000,  0.499999764500000,  0.879276900530587 ]
    mass: 12.010700
    reduced_to: 96
  - symbol: C  # 101
    coordinates: [  0.499999550000000,  0.499999700000000,  0.083333333333333 ]
    mass: 12.010700
    reduced_to: 101
  - symbol: C  # 102
    coordinates: [  0.499999550000000,  0.499999700000000,  0.283333333333333 ]
    mass: 12.010700
    reduced_to: 101
  - symbol: C  # 103
    coordinates: [  0.499999550000000,  0.499999700000000,  0.483333333333333 ]
    mass: 12.010700
    reduced_to: 101
  - symbol: C  # 104
    coordinates: [  0.499999550000000,  0.499999700000000,  0.683333333333333 ]
    mass: 12.010700
    reduced_to: 101
  - symbol: C  # 105
    coordinates: [  0.499999550000000,  0.499999700000000,  0.883333333333333 ]
    mass: 12.010700
    reduced_to: 101
  - symbol: C  # 106
    coordinates: [  0.499999595500000,  0.499999764500000,  0.087610233863920 ]
    mass: 12.010700
    reduced_to: 106
  - symbol: C  # 107
    coordinates: [  0.499999595500000,  0.499999764500000,  0.287610233863920 ]
    mass: 12.010700
    reduced_to: 106
  - symbol: C  # 108
    coordinates: [  0.499999595500000,  0.499999764500000,  0.487610233863920 ]
    mass: 12.010700
    reduced_to: 106
  - symbol: C  # 109
    coordinates: [  0.499999595500000,  0.499999764500000,  0.687610233863920 ]
    mass: 12.010700
    reduced_to: 106
  - symbol: C  # 110
    coordinates: [  0.499999595500000,  0.499999764500000,  0.887610233863920 ]
    mass: 12.010700
    reduced_to: 106
  - symbol: C  # 111
    coordinates: [  0.499999550000000,  0.499999700000000,  0.091666666666667 ]
    mass: 12.010700
    reduced_to: 111
  - symbol: C  # 112
    coordinates: [  0.499999550000000,  0.499999700000000,  0.291666666666667 ]
    mass: 12.010700
    reduced_to: 111
  - symbol: C  # 113
    coordinates: [  0.499999550000000,  0.499999700000000,  0.491666666666667 ]
    mass: 12.010700
    reduced_to: 111
  - symbol: C  # 114
    coordinates: [  0.499999550000000,  0.499999700000000,  0.691666666666667 ]
    mass: 12.010700
    reduced_to: 111
  - symbol: C  # 115
    coordinates: [  0.499999550000000,  0.499999700000000,  0.891666666666667 ]
    mass: 12.010700
    reduced_to: 111
  - symbol: C  # 116