phonopy:
  version: 2.1.2
  calculator: siesta
  frequency_unit_conversion_factor: 21.490680
  configuration:
    force_constants: "Write"
    dim: "1 1 5"
    mp: "1 1 30"
    gamma_center: ".TRUE."
    qpoints: "0 0 0  1/4 1/4 1/4  1/2 1/2 1/2"
    writedm: ".TRUE."

physical_unit:
  atomic_mass: "AMU"
  length: "au"
  force_constants: "eV/Angstrom.au"

supercell_matrix:
- [   1,   0,   0 ]
- [   0,   1,   0 ]
- [   0,   0,   5 ]

space_group:
  type: "P4/mmm"
  number: 123
  Hall_symbol: "-P 4 2"

primitive_matrix:
- [  1.000000000000000,  0.000000000000000,  0.000000000000000 ]
- [  0.000000000000000,  1.000000000000000,  0.000000000000000 ]
- [  0.000000000000000,  0.000000000000000,  0.041666666666667 ]

primitive_cell:
  lattice:
  - [    37.794522740993813,     0.000000000000000,     0.000000000000000 ] # a
  - [     0.000000000000000,    37.794522740993813,     0.000000000000000 ] # b
  - [     0.000000000000000,     0.000000000000000,     5.045568785922672 ] # c
  points:
  - symbol: C  # 1
    coordinates: [  0.499999550000000,  0.499999700000000,  0.000000000000000 ]
    mass: 12.010700
  - symbol: C  # 2
    coordinates: [  0.499999596000000,  0.499999764000000,  0.513228071910120 ]
    mass: 12.010700
  reciprocal_lattice: # without 2pi
  - [     0.026458860371197,     0.000000000000000,     0.000000000000000 ] # a*
  - [     0.000000000000000,     0.026458860371197,     0.000000000000000 ] # b*
  - [     0.000000000000000,     0.000000000000000,     0.198193710645673 ] # c*

unit_cell:
  lattice:
  - [    37.794522740993806,     0.000000000000000,     0.000000000000000 ] # a
  - [     0.000000000000000,    37.794522740993806,     0.000000000000000 ] # b
  - [     0.000000000000000,     0.000000000000000,   121.093650862144145 ] # c
  points:
  - symbol: C  # 1
    coordinates: [  0.499999550000000,  0.499999700000000,  0.000000000000000 ]
    mass: 12.010700
    reduced_to: 1
  - symbol: C  # 2
    coordinates: [  0.499999596000000,  0.499999764000000,  0.021384502996255 ]
    mass: 12.010700
    reduced_to: 2
  - symbol: C  # 3
    coordinates: [  0.499999550000000,  0.499999700000000,  0.041666666994382 ]
    mass: 12.010700
    reduced_to: 1
  - symbol: C  # 4
    coordinates: [  0.499999596000000,  0.499999764000000,  0.063051169007491 ]
    mass: 12.010700
    reduced_to: 2
  - symbol: C  # 5
    coordinates: [  0.499999550000000,  0.499999700000000,  0.083333333005618 ]
    mass: 12.010700
    reduced_to: 1
  - symbol: C  # 6
    coordinates: [  0.499999596000000,  0.499999764000000,  0.104717836001873 ]
    mass: 12.010700
    reduced_to: 2
  - symbol: C  # 7
    coordinates: [  0.499999550000000,  0.499999700000000,  0.125000000000000 ]
    mass: 12.010700
    reduced_to: 1
  - symbol: C  # 8
    coordinates: [  0.499999596000000,  0.499999764000000,  0.146384502996255 ]
    mass: 12.010700
    reduced_to: 2
  - symbol: C  # 9
    coordinates: [  0.499999550000000,  0.499999700000000,  0.166666666994382 ]
    mass: 12.010700
    reduced_to: 1
  - symbol: C  # 10
    coordinates: [  0.499999596000000,  0.499999764000000,  0.188051169007491 ]
    mass: 12.010700
    reduced_to: 2
  - symbol: C  # 11
    coordinates: [  0.499999550000000,  0.499999700000000,  0.208333333005618 ]
    mass: 12.010700
    reduced_to: 1
  - symbol: C  # 12
    coordinates: [  0.499999596000000,  0.499999764000000,  0.229717836001873 ]
    mass: 12.010700
    reduced_to: 2
  - symbol: C  # 13
    coordinates: [  0.499999550000000,  0.499999700000000,  0.250000000000000 ]
    mass: 12.010700
    reduced_to: 1
  - symbol: C  # 14
    coordinates: [  0.499999596000000,  0.499999764000000,  0.271384502996255 ]
    mass: 12.010700
    reduced_to: 2
  - symbol: C  # 15
    coordinates: [  0.499999550000000,  0.499999700000000,  0.291666666994382 ]
    mass: 12.010700
    reduced_to: 1
  - symbol: C  # 16
    coordinates: [  0.499999596000000,  0.499999764000000,  0.313051169007491 ]
    mass: 12.010700
    reduced_to: 2
  - symbol: C  # 17
    coordinates: [  0.499999550000000,  0.499999700000000,  0.333333333005618 ]
    mass: 12.010700
    reduced_to: 1
  - symbol: C  # 18
    coordinates: [  0.499999596000000,  0.499999764000000,  0.354717836001873 ]
    mass: 12.010700
    reduced_to: 2
  - symbol: C  # 19
    coordinates: [  0.499999550000000,  0.499999700000000,  0.375000000000000 ]
    mass: 12.010700
    reduced_to: 1
  - symbol: C  # 20
    coordinates: [  0.499999596000000,  0.499999764000000,  0.396384502996255 ]
    mass: 12.010700
    reduced_to: 2
  - symbol: C  # 21
    coordinates: [  0.499999550000000,  0.499999700000000,  0.416666666994382 ]
    mass: 12.010700
    reduced_to: 1
  - symbol: C  # 22
    coordinates: [  0.499999596000000,  0.499999764000000,  0.438051169007491 ]
    mass: 12.010700
    reduced_to: 2
  - symbol: C  # 23
    coordinates: [  0.499999550000000,  0.499999700000000,  0.458333333005618 ]
    mass: 12.010700
    reduced_to: 1
  - symbol: C  # 24
    coordinates: [  0.499999596000000,  0.499999764000000,  0.479717836001873 ]
    mass: 12.010700
    reduced_to: 2
  - symbol: C  # 25
    coordinates: [  0.499999550000000,  0.499999700000000,  0.500000000000000 ]
    mass: 12.010700
    reduced_to: 1
  - symbol: C  # 26
    coordinates: [  0.499999596000000,  0.499999764000000,  0.521384502996255 ]
    mass: 12.010700
    reduced_to: 2
  - symbol: C  # 27
    coordinates: [  0.499999550000000,  0.499999700000000,  0.541666666994382 ]
    mass: 12.010700
    reduced_to: 1
  - symbol: C  # 28
    coordinates: [  0.499999596000000,  0.499999764000000,  0.563051169007491 ]
    mass: 12.010700
    reduced_to: 2
  - symbol: C  # 29
    coordinates: [  0.499999550000000,  0.499999700000000,  0.583333333005618 ]
    mass: 12.010700
    reduced_to: 1
  - symbol: C  # 30
    coordinates: [  0.499999596000000,  0.499999764000000,  0.604717836001873 ]
    mass: 12.010700
    reduced_to: 2
  - symbol: C  # 31
    coordinates: [  0.499999550000000,  0.499999700000000,  0.625000000000000 ]
    mass: 12.010700
    reduced_to: 1
  - symbol: C  # 32
    coordinates: [  0.499999596000000,  0.499999764000000,  0.646384502996255 ]
    mass: 12.010700
    reduced_to: 2
  - symbol: C  # 33
    coordinates: [  0.499999550000000,  0.499999700000000,  0.666666666994382 ]
    mass: 12.010700
    reduced_to: 1
  - symbol: C  # 34
    coordinates: [  0.499999596000000,  0.499999764000000,  0.688051169007491 ]
    mass: 12.010700
    reduced_to: 2
  - symbol: C  # 35
    coordinates: [  0.499999550000000,  0.499999700000000,  0.708333333005618 ]
    mass: 12.010700
    reduced_to: 1
  - symbol: C  # 36
    coordinates: [  0.499999596000000,  0.499999764000000,  0.729717836001873 ]
    mass: 12.010700
    reduced_to: 2
  - symbol: C  # 37
    coordinates: [  0.499999550000000,  0.499999700000000,  0.750000000000000 ]
    mass: 12.010700
    reduced_to: 1
  - symbol: C  # 38
    coordinates: [  0.499999596000000,  0.499999764000000,  0.771384502996255 ]
    mass: 12.010700
    reduced_to: 2
  - symbol: C  # 39
    coordinates: [  0.499999550000000,  0.499999700000000,  0.791666666994382 ]
    mass: 12.010700
    reduced_to: 1
  - symbol: C  # 40
    coordinates: [  0.499999596000000,  0.499999764000000,  0.813051169007491 ]
    mass: 12.010700
    reduced_to: 2
  - symbol: C  # 41
    coordinates: [  0.499999550000000,  0.499999700000000,  0.833333333005618 ]
    mass: 12.010700
    reduced_to: 1
  - symbol: C  # 42
    coordinates: [  0.499999596000000,  0.499999764000000,  0.854717836001873 ]
    mass: 12.010700
    reduced_to: 2
  - symbol: C  # 43
    coordinates: [  0.499999550000000,  0.499999700000000,  0.875000000000000 ]
    mass: 12.010700
    reduced_to: 1
  - symbol: C  # 44
    coordinates: [  0.499999596000000,  0.499999764000000,  0.896384502996255 ]
    mass: 12.010700
    reduced_to: 2
  - symbol: C  # 45
    coordinates: [  0.499999550000000,  0.499999700000000,  0.916666666994382 ]
    mass: 12.010700
    reduced_to: 1
  - symbol: C  # 46
    coordinates: [  0.499999596000000,  0.499999764000000,  0.938051169007491 ]
    mass: 12.010700
    reduced_to: 2
  - symbol: C  # 47
    coordinates: [  0.499999550000000,  0.499999700000000,  0.958333333005618 ]
    mass: 12.010700
    reduced_to: 1
  - symbol: C  # 48
    coordinates: [  0.499999596000000,  0.499999764000000,  0.979717836001873 ]
    mass: 12.010700
    reduced_to: 2

supercell:
  lattice:
  - [    37.794522740993806,     0.000000000000000,     0.000000000000000 ] # a
  - [     0.000000000000000,    37.794522740993806,     0.000000000000000 ] # b
  - [     0.000000000000000,     0.000000000000000,   605.468254310720681 ] # c
  points:
  - symbol: C  # 1
    coordinates: [  0.499999550000000,  0.499999700000000,  0.000000000000000 ]
    mass: 12.010700
    reduced_to: 1
  - symbol: C  # 2
    coordinates: [  0.499999550000000,  0.499999700000000,  0.200000000000000 ]
    mass: 12.010700
    reduced_to: 1
  - symbol: C  # 3
    coordinates: [  0.499999550000000,  0.499999700000000,  0.400000000000000 ]
    mass: 12.010700
    reduced_to: 1
  - symbol: C  # 4
    coordinates: [  0.499999550000000,  0.499999700000000,  0.600000000000000 ]
    mass: 12.010700
    reduced_to: 1
  - symbol: C  # 5
    coordinates: [  0.499999550000000,  0.499999700000000,  0.800000000000000 ]
    mass: 12.010700
    reduced_to: 1
  - symbol: C  # 6
    coordinates: [  0.499999596000000,  0.499999764000000,  0.004276900599251 ]
    mass: 12.010700
    reduced_to: 6
  - symbol: C  # 7
    coordinates: [  0.499999596000000,  0.499999764000000,  0.204276900599251 ]
    mass: 12.010700
    reduced_to: 6
  - symbol: C  # 8
    coordinates: [  0.499999596000000,  0.499999764000000,  0.404276900599251 ]
    mass: 12.010700
    reduced_to: 6
  - symbol: C  # 9
    coordinates: [  0.499999596000000,  0.499999764000000,  0.604276900599251 ]
    mass: 12.010700
    reduced_to: 6
  - symbol: C  # 10
    coordinates: [  0.499999596000000,  0.499999764000000,  0.804276900599251 ]
    mass: 12.010700
    reduced_to: 6
  - symbol: C  # 11
    coordinates: [  0.499999550000000,  0.499999700000000,  0.008333333398876 ]
    mass: 12.010700
    reduced_to: 1
  - symbol: C  # 12
    coordinates: [  0.499999550000000,  0.499999700000000,  0.208333333398876 ]
    mass: 12.010700
    reduced_to: 1
  - symbol: C  # 13
    coordinates: [  0.499999550000000,  0.499999700000000,  0.408333333398876 ]
    mass: 12.010700
    reduced_to: 1
  - symbol: C  # 14
    coordinates: [  0.499999550000000,  0.499999700000000,  0.608333333398877 ]
    mass: 12.010700
    reduced_to: 1
  - symbol: C  # 15
    coordinates: [  0.499999550000000,  0.499999700000000,  0.808333333398876 ]
    mass: 12.010700
    reduced_to: 1
  - symbol: C  # 16
    coordinates: [  0.499999596000000,  0.499999764000000,  0.012610233801498 ]
    mass: 12.010700
    reduced_to: 6
  - symbol: C  # 17
    coordinates: [  0.499999596000000,  0.499999764000000,  0.212610233801498 ]
    mass: 12.010700
    reduced_to: 6
  - symbol: C  # 18
    coordinates: [  0.499999596000000,  0.499999764000000,  0.412610233801498 ]
    mass: 12.010700
    reduced_to: 6
  - symbol: C  # 19
    coordinates: [  0.499999596000000,  0.499999764000000,  0.612610233801498 ]
    mass: 12.010700
    reduced_to: 6
  - symbol: C  # 20
    coordinates: [  0.499999596000000,  0.499999764000000,  0.812610233801498 ]
    mass: 12.010700
    reduced_to: 6
  - symbol: C  # 21
    coordinates: [  0.499999550000000,  0.499999700000000,  0.016666666601124 ]
    mass: 12.010700
    reduced_to: 1
  - symbol: C  # 22
    coordinates: [  0.499999550000000,  0.499999700000000,  0.216666666601124 ]
    mass: 12.010700
    reduced_to: 1
  - symbol: C  # 23
    coordinates: [  0.499999550000000,  0.499999700000000,  0.416666666601124 ]
    mass: 12.010700
    reduced_to: 1
  - symbol: C  # 24
    coordinates: [  0.499999550000000,  0.499999700000000,  0.616666666601124 ]
    mass: 12.010700
    reduced_to: 1
  - symbol: C  # 25
    coordinates: [  0.499999550000000,  0.499999700000000,  0.816666666601124 ]
    mass: 12.010700
    reduced_to: 1
  - symbol: C  # 26
    coordinates: [  0.499999596000000,  0.499999764000000,  0.020943567200375 ]
    mass: 12.010700
    reduced_to: 6
  - symbol: C  # 27
    coordinates: [  0.499999596000000,  0.499999764000000,  0.220943567200375 ]
    mass: 12.010700
    reduced_to: 6
  - symbol: C  # 28
    coordinates: [  0.499999596000000,  0.499999764000000,  0.420943567200375 ]
    mass: 12.010700
    reduced_to: 6
  - symbol: C  # 29
    coordinates: [  0.499999596000000,  0.499999764000000,  0.620943567200375 ]
    mass: 12.010700
    reduced_to: 6
  - symbol: C  # 30
    coordinates: [  0.499999596000000,  0.499999764000000,  0.820943567200375 ]
    mass: 12.010700
    reduced_to: 6
  - symbol: C  # 31
    coordinates: [  0.499999550000000,  0.499999700000000,  0.025000000000000 ]
    mass: 12.010700
    reduced_to: 1
  - symbol: C  # 32
    coordinates: [  0.499999550000000,  0.499999700000000,  0.225000000000000 ]
    mass: 12.010700
    reduced_to: 1
  - symbol: C  # 33
    coordinates: [  0.499999550000000,  0.499999700000000,  0.425000000000000 ]
    mass: 12.010700
    reduced_to: 1
  - symbol: C  # 34
    coordinates: [  0.499999550000000,  0.499999700000000,  0.625000000000000 ]
    mass: 12.010700
    reduced_to: 1
  - symbol: C  # 35
    coordinates: [  0.499999550000000,  0.499999700000000,  0.825000000000000 ]
    mass: 12.010700
    reduced_to: 1
  - symbol: C  # 36
    coordinates: [  0.499999596000000,  0.499999764000000,  0.029276900599251 ]
    mass: 12.010700
    reduced_to: 6
  - symbol: C  # 37
    coordinates: [  0.499999596000000,  0.499999764000000,  0.229276900599251 ]
    mass: 12.010700
    reduced_to: 6
  - symbol: C  # 38
    coordinates: [  0.499999596000000,  0.499999764000000,  0.429276900599251 ]
    mass: 12.010700
    reduced_to: 6
  - symbol: C  # 39
    coordinates: [  0.499999596000000,  0.499999764000000,  0.629276900599251 ]
    mass: 12.010700
    reduced_to: 6
  - symbol: C  # 40
    coordinates: [  0.499999596000000,  0.499999764000000,  0.829276900599251 ]
    mass: 12.010700
    reduced_to: 6
  - symbol: C  # 41
    coordinates: [  0.499999550000000,  0.499999700000000,  0.033333333398876 ]
    mass: 12.010700
    reduced_to: 1
  - symbol: C  # 42
    coordinates: [  0.499999550000000,  0.499999700000000,  0.233333333398876 ]
    mass: 12.010700
    reduced_to: 1
  - symbol: C  # 43
    coordinates: [  0.499999550000000,  0.499999700000000,  0.433333333398876 ]
    mass: 12.010700
    reduced_to: 1
  - symbol: C  # 44
    coordinates: [  0.499999550000000,  0.499999700000000,  0.633333333398876 ]
    mass: 12.010700
    reduced_to: 1
  - symbol: C  # 45
    coordinates: [  0.499999550000000,  0.499999700000000,  0.833333333398876 ]
    mass: 12.010700
    reduced_to: 1
  - symbol: C  # 46
    coordinates: [  0.499999596000000,  0.499999764000000,  0.037610233801498 ]
    mass: 12.010700
    reduced_to: 6
  - symbol: C  # 47
    coordinates: [  0.499999596000000,  0.499999764000000,  0.237610233801498 ]
    mass: 12.010700
    reduced_to: 6
  - symbol: C  # 48
    coordinates: [  0.499999596000000,  0.499999764000000,  0.437610233801498 ]
    mass: 12.010700
    reduced_to: 6
  - symbol: C  # 49
    coordinates: [  0.499999596000000,  0.499999764000000,  0.637610233801498 ]
    mass: 12.010700
    reduced_to: 6
  - symbol: C  # 50
    coordinates: [  0.499999596000000,  0.499999764000000,  0.837610233801498 ]
    mass: 12.010700
    reduced_to: 6
  - symbol: C  # 51
    coordinates: [  0.499999550000000,  0.499999700000000,  0.041666666601124 ]
    mass: 12.010700
    reduced_to: 1
  - symbol: C  # 52
    coordinates: [  0.499999550000000,  0.499999700000000,  0.241666666601124 ]
    mass: 12.010700
    reduced_to: 1
  - symbol: C  # 53
    coordinates: [  0.499999550000000,  0.499999700000000,  0.441666666601124 ]
    mass: 12.010700
    reduced_to: 1
  - symbol: C  # 54
    coordinates: [  0.499999550000000,  0.499999700000000,  0.641666666601124 ]
    mass: 12.010700
    reduced_to: 1
  - symbol: C  # 55
    coordinates: [  0.499999550000000,  0.499999700000000,  0.841666666601124 ]
    mass: 12.010700
    reduced_to: 1
  - symbol: C  # 56
    coordinates: [  0.499999596000000,  0.499999764000000,  0.045943567200375 ]
    mass: 12.010700
    reduced_to: 6
  - symbol: C  # 57
    coordinates: [  0.499999596000000,  0.499999764000000,  0.245943567200375 ]
    mass: 12.010700
    reduced_to: 6
  - symbol: C  # 58
    coordinates: [  0.499999596000000,  0.499999764000000,  0.445943567200375 ]
    mass: 12.010700
    reduced_to: 6
  - symbol: C  # 59
    coordinates: [  0.499999596000000,  0.499999764000000,  0.645943567200375 ]
    mass: 12.010700
    reduced_to: 6
  - symbol: C  # 60
    coordinates: [  0.499999596000000,  0.499999764000000,  0.845943567200375 ]
    mass: 12.010700
    reduced_to: 6
  - symbol: C  # 61
    coordinates: [  0.499999550000000,  0.499999700000000,  0.050000000000000 ]
    mass: 12.010700
    reduced_to: 1
  - symbol: C  # 62
    coordinates: [  0.499999550000000,  0.499999700000000,  0.250000000000000 ]
    mass: 12.010700
    reduced_to: 1
  - symbol: C  # 63
    coordinates: [  0.499999550000000,  0.499999700000000,  0.450000000000000 ]
    mass: 12.010700
    reduced_to: 1
  - symbol: C  # 64
    coordinates: [  0.499999550000000,  0.499999700000000,  0.650000000000000 ]
    mass: 12.010700
    reduced_to: 1
  - symbol: C  # 65
    coordinates: [  0.499999550000000,  0.499999700000000,  0.850000000000000 ]
    mass: 12.010700
    reduced_to: 1
  - symbol: C  # 66
    coordinates: [  0.499999596000000,  0.499999764000000,  0.054276900599251 ]
    mass: 12.010700
    reduced_to: 6
  - symbol: C  # 67
    coordinates: [  0.499999596000000,  0.499999764000000,  0.254276900599251 ]
    mass: 12.010700
    reduced_to: 6
  - symbol: C  # 68
    coordinates: [  0.499999596000000,  0.499999764000000,  0.454276900599251 ]
    mass: 12.010700
    reduced_to: 6
  - symbol: C  # 69
    coordinates: [  0.499999596000000,  0.499999764000000,  0.654276900599251 ]
    mass: 12.010700
    reduced_to: 6
  - symbol: C  # 70
    coordinates: [  0.499999596000000,  0.499999764000000,  0.854276900599251 ]
    mass: 12.010700
    reduced_to: 6
  - symbol: C  # 71
    coordinates: [  0.499999550000000,  0.499999700000000,  0.058333333398876 ]
    mass: 12.010700
    reduced_to: 1
  - symbol: C  # 72
    coordinates: [  0.499999550000000,  0.499999700000000,  0.258333333398876 ]
    mass: 12.010700
    reduced_to: 1
  - symbol: C  # 73
    coordinates: [  0.499999550000000,  0.499999700000000,  0.458333333398876 ]
    mass: 12.010700
    reduced_to: 1
  - symbol: C  # 74
    coordinates: [  0.499999550000000,  0.499999700000000,  0.658333333398876 ]
    mass: 12.010700
    reduced_to: 1
  - symbol: C  # 75
    coordinates: [  0.499999550000000,  0.499999700000000,  0.858333333398876 ]
    mass: 12.010700
    reduced_to: 1
  - symbol: C  # 76
    coordinates: [  0.499999596000000,  0.499999764000000,  0.062610233801498 ]
    mass: 12.010700
    reduced_to: 6
  - symbol: C  # 77
    coordinates: [  0.499999596000000,  0.499999764000000,  0.262610233801498 ]
    mass: 12.010700
    reduced_to: 6
  - symbol: C  # 78
    coordinates: [  0.499999596000000,  0.499999764000000,  0.462610233801498 ]
    mass: 12.010700
    reduced_to: 6
  - symbol: C  # 79
    coordinates: [  0.499999596000000,  0.499999764000000,  0.662610233801498 ]
    mass: 12.010700
    reduced_to: 6
  - symbol: C  # 80
    coordinates: [  0.499999596000000,  0.499999764000000,  0.862610233801498 ]
    mass: 12.010700
    reduced_to: 6
  - symbol: C  # 81
    coordinates: [  0.499999550000000,  0.499999700000000,  0.066666666601124 ]
    mass: 12.010700
    reduced_to: 1
  - symbol: C  # 82
    coordinates: [  0.499999550000000,  0.499999700000000,  0.266666666601124 ]
    mass: 12.010700
    reduced_to: 1
  - symbol: C  # 83
    coordinates: [  0.499999550000000,  0.499999700000000,  0.466666666601124 ]
    mass: 12.010700
    reduced_to: 1
  - symbol: C  # 84
    coordinates: [  0.499999550000000,  0.499999700000000,  0.666666666601124 ]
    mass: 12.010700
    reduced_to: 1
  - symbol: C  # 85
    coordinates: [  0.499999550000000,  0.499999700000000,  0.866666666601124 ]
    mass: 12.010700
    reduced_to: 1
  - symbol: C  # 86
    coordinates: [  0.499999596000000,  0.499999764000000,  0.070943567200375 ]
    mass: 12.010700
    reduced_to: 6
  - symbol: C  # 87
    coordinates: [  0.499999596000000,  0.499999764000000,  0.270943567200375 ]
    mass: 12.010700
    reduced_to: 6
  - symbol: C  # 88
    coordinates: [  0.499999596000000,  0.499999764000000,  0.470943567200375 ]
    mass: 12.010700
    reduced_to: 6
  - symbol: C  # 89
    coordinates: [  0.499999596000000,  0.499999764000000,  0.670943567200375 ]
    mass: 12.010700
    reduced_to: 6
  - symbol: C  # 90
    coordinates: [  0.499999596000000,  0.499999764000000,  0.870943567200375 ]
    mass: 12.010700
    reduced_to: 6
  - symbol: C  # 91
    coordinates: [  0.499999550000000,  0.499999700000000,  0.075000000000000 ]
    mass: 12.010700
    reduced_to: 1
  - symbol: C  # 92
    coordinates: [  0.499999550000000,  0.499999700000000,  0.275000000000000 ]
    mass: 12.010700
    reduced_to: 1
  - symbol: C  # 93
    coordinates: [  0.499999550000000,  0.499999700000000,  0.475000000000000 ]
    mass: 12.010700
    reduced_to: 1
  - symbol: C  # 94
    coordinates: [  0.499999550000000,  0.499999700000000,  0.675000000000000 ]
    mass: 12.010700
    reduced_to: 1
  - symbol: C  # 95
    coordinates: [  0.499999550000000,  0.499999700000000,  0.875000000000000 ]
    mass: 12.010700
    reduced_to: 1
  - symbol: C  # 96
    coordinates: [  0.499999596000000,  0.499999764000000,  0.079276900599251 ]
    mass: 12.010700
    reduced_to: 6
  - symbol: C  # 97
    coordinates: [  0.499999596000000,  0.499999764000000,  0.279276900599251 ]
    mass: 12.010700
    reduced_to: 6
  - symbol: C  # 98
    coordinates: [  0.499999596000000,  0.499999764000000,  0.479276900599251 ]
    mass: 12.010700
    reduced_to: 6
  - symbol: C  # 99
    coordinates: [  0.499999596000000,  0.499999764000000,  0.679276900599251 ]
    mass: 12.010700
    reduced_to: 6
  - symbol: C  # 100
    coordinates: [  0.499999596000000,  0.499999764000000,  0.879276900599251 ]
    mass: 12.010700
    reduced_to: 6
  - symbol: C  # 101
    coordinates: [  0.499999550000000,  0.499999700000000,  0.083333333398876 ]
    mass: 12.010700
    reduced_to: 1
  - symbol: C  # 102
    coordinates: [  0.499999550000000,  0.499999700000000,  0.283333333398876 ]
    mass: 12.010700
    reduced_to: 1
  - symbol: C  # 103
    coordinates: [  0.499999550000000,  0.499999700000000,  0.483333333398876 ]
    mass: 12.010700
    reduced_to: 1
  - symbol: C  # 104
    coordinates: [  0.499999550000000,  0.499999700000000,  0.683333333398876 ]
    mass: 12.010700
    reduced_to: 1
  - symbol: C  # 105
    coordinates: [  0.499999550000000,  0.499999700000000,  0.883333333398876 ]
    mass: 12.010700
    reduced_to: 1
  - symbol: C  # 106
    coordinates: [  0.499999596000000,  0.499999764000000,  0.087610233801498 ]
    mass: 12.010700
    reduced_to: 6
  - symbol: C  # 107
    coordinates: [  0.499999596000000,  0.499999764000000,  0.287610233801498 ]
    mass: 12.010700
    reduced_to: 6
  - symbol: C  # 108
    coordinates: [  0.499999596000000,  0.499999764000000,  0.487610233801498 ]
    mass: 12.010700
    reduced_to: 6
  - symbol: C  # 109
    coordinates: [  0.499999596000000,  0.499999764000000,  0.687610233801498 ]
    mass: 12.010700
    reduced_to: 6
  - symbol: C  # 110
    coordinates: [  0.499999596000000,  0.499999764000000,  0.887610233801498 ]
    mass: 12.010700
    reduced_to: 6
  - symbol: C  # 111
    coordinates: [  0.499999550000000,  0.499999700000000,  0.091666666601124 ]
    mass: 12.010700
    reduced_to: 1
  - symbol: C  # 112
    coordinates: [  0.499999550000000,  0.499999700000000,  0.291666666601124 ]
    mass: 12.010700
    reduced_to: 1
  - symbol: C  # 113
    coordinates: [  0.499999550000000,  0.499999700000000,  0.491666666601124 ]
    mass: 12.010700
    reduced_to: 1
  - symbol: C  # 114
    coordinates: [  0.499999550000000,  0.499999700000000,  0.691666666601124 ]
    mass: 12.010700
    reduced_to: 1
  - symbol: C  # 115
    coordinates: [  0.499999550000000,  0.499999700000000,  0.891666666601124 ]
    mass: 12.010700
    reduced_to: 1
  - symbol: C  # 116
    coordinates: [  0.499999596000000,  0.499999764000000,  0.095943567200375 ]
    mass: 12.010700
    reduced_to: 6
  - symbol: C  # 117
    coordinates: [  0.499999596000000,  0.499999764000000,  0.295943567200375 ]
    mass: 12.010700
    reduced_to: 6
  - symbol: C  # 118
    coordinates: [  0.499999596000000,  0.499999764000000,  0.495943567200375 ]
    mass: 12.010700
    reduced_to: 6
  - symbol: C  # 119
    coordinates: [  0.499999596000000,  0.499999764000000,  0.695943567200375 ]
    mass: 12.010700
    reduced_to: 6
  - symbol: C  # 120
    coordinates: [  0.499999596000000,  0.499999764000000,  0.895943567200375 ]
    mass: 12.010700
    reduced_to: 6
  - symbol: C  # 121
    coordinates: [  0.499999550000000,  0.499999700000000,  0.100000000000000 ]
    mass: 12.010700
    reduced_to: 1
  - symbol: C  # 122
    coordinates: [  0.499999550000000,  0.499999700000000,  0.300000000000000 ]
    mass: 12.010700
    reduced_to: 1
  - symbol: C  # 123
    coordinates: [  0.499999550000000,  0.499999700000000,  0.500000000000000 ]
    mass: 12.010700
    reduced_to: 1
  - symbol: C  # 124
    coordinates: [  0.499999550000000,  0.499999700000000,  0.700000000000000 ]
    mass: 12.010700
    reduced_to: 1
  - symbol: C  # 125
    coordinates: [  0.499999550000000,  0.499999700000000,  0.900000000000000 ]
    mass: 12.010700
    reduced_to: 1
  - symbol: C  # 126
    coordinates: [  0.499999596000000,  0.499999764000000,  0.104276900599251 ]
    mass: 12.010700
    reduced_to: 6
  - symbol: C  # 127
    coordinates: [  0.499999596000000,  0.499999764000000,  0.304276900599251 ]
    mass: 12.010700
    reduced_to: 6
  - symbol: C  # 128
    coordinates: [  0.499999596000000,  0.499999764000000,  0.504276900599251 ]
    mass: 12.010700
    reduced_to: 6
  - symbol: C  # 129
    coordinates: [  0.499999596000000,  0.499999764000000,  0.704276900599251 ]
    mass: 12.010700
    reduced_to: 6
  - symbol: C  # 130
    coordinates: [  0.499999596000000,  0.499999764000000,  0.904276900599251 ]
    mass: 12.010700
    reduced_to: 6
  - symbol: C  # 131
    coordinates: [  0.499999550000000,  0.499999700000000,  0.108333333398876 ]
    mass: 12.010700
    reduced_to: 1
  - symbol: C  # 132
    coordinates: [  0.499999550000000,  0.499999700000000,  0.308333333398876 ]
    mass: 12.010700
    reduced_to: 1
  - symbol: C  # 133
    coordinates: [  0.499999550000000,  0.499999700000000,  0.508333333398876 ]
    mass: 12.010700
    reduced_to: 1
  - symbol: C  # 134
    coordinates: [  0.499999550000000,  0.499999700000000,  0.708333333398876 ]
    mass: 12.010700
    reduced_to: 1
  - symbol: C  # 135
    coordinates: [  0.499999550000000,  0.499999700000000,  0.908333333398876 ]
    mass: 12.010700
    reduced_to: 1
  - symbol: C  # 136
    coordinates: [  0.499999596000000,  0.499999764000000,  0.112610233801498 ]
    mass: 12.010700
    reduced_to: 6
  - symbol: C  # 137
    coordinates: [  0.499999596000000,  0.499999764000000,  0.312610233801498 ]
    mass: 12.010700
    reduced_to: 6
  - symbol: C  # 138
    coordinates: [  0.499999596000000,  0.499999764000000,  0.512610233801498 ]
    mass: 12.010700
    reduced_to: 6
  - symbol: C  # 139
    coordinates: [  0.499999596000000,  0.499999764000000,  0.712610233801498 ]
    mass: 12.010700
    reduced_to: 6
  - symbol: C  # 140
    coordinates: [  0.499999596000000,  0.499999764000000,  0.912610233801498 ]
    mass: 12.010700
    reduced_to: 6
  - symbol: C  # 141
    coordinates: [  0.499999550000000,  0.499999700000000,  0.116666666601124 ]
    mass: 12.010700
    reduced_to: 1
  - symbol: C  # 142
    coordinates: [  0.499999550000000,  0.499999700000000,  0.316666666601124 ]
    mass: 12.010700
    reduced_to: 1
  - symbol: C  # 143
    coordinates: [  0.499999550000000,  0.499999700000000,  0.516666666601124 ]
    mass: 12.010700
    reduced_to: 1
  - symbol: C  # 144
    coordinates: [  0.499999550000000,  0.499999700000000,  0.716666666601124 ]
    mass: 12.010700
    reduced_to: 1
  - symbol: C  # 145
    coordinates: [  0.499999550000000,  0.499999700000000,  0.916666666601124 ]
    mass: 12.010700
    reduced_to: 1
  - symbol: C  # 146
    coordinates: [  0.499999596000000,  0.499999764000000,  0.120943567200375 ]
    mass: 12.010700
    reduced_to: 6
  - symbol: C  # 147
    coordinates: [  0.499999596000000,  0.499999764000000,  0.320943567200375 ]
    mass: 12.010700
    reduced_to: 6
  - symbol: C  # 148
    coordinates: [  0.499999596000000,  0.499999764000000,  0.520943567200375 ]
    mass: 12.010700
    reduced_to: 6
  - symbol: C  # 149
    coordinates: [  0.499999596000000,  0.499999764000000,  0.720943567200375 ]
    mass: 12.010700
    reduced_to: 6
  - symbol: C  # 150
    coordinates: [  0.499999596000000,  0.499999764000000,  0.920943567200375 ]
    mass: 12.010700
    reduced_to: 6
  - symbol: C  # 151
    coordinates: [  0.499999550000000,  0.499999700000000,  0.125000000000000 ]
    mass: 12.010700
    reduced_to: 1
  - symbol: C  # 152
    coordinates: [  0.499999550000000,  0.499999700000000,  0.325000000000000 ]
    mass: 12.010700
    reduced_to: 1
  - symbol: C  # 153
    coordinates: [  0.499999550000000,  0.499999700000000,  0.525000000000000 ]
    mass: 12.010700
    reduced_to: 1
  - symbol: C  # 154
    coordinates: [  0.499999550000000,  0.499999700000000,  0.725000000000000 ]
    mass: 12.010700
    reduced_to: 1
  - symbol: C  # 155