mesh: [     1,     1,    30 ]
nqpoint: 16     
reciprocal_lattice:
- [   0.02645886,   0.00000000,   0.00000000 ] # a*
- [   0.00000000,   0.02645886,   0.00000000 ] # b*
- [   0.00000000,   0.00000000,   0.00825807 ] # c*
natom:   48     
lattice:
- [    37.794522740993806,     0.000000000000000,     0.000000000000000 ] # a
- [     0.000000000000000,    37.794522740993806,     0.000000000000000 ] # b
- [     0.000000000000000,     0.000000000000000,   121.093650862144145 ] # c
points:
- symbol: C  # 1
  coordinates: [  0.499999550000000,  0.499999700000000,  0.000000000000000 ]
  mass: 12.010700
- symbol: C  # 2
  coordinates: [  0.499999596000000,  0.499999764000000,  0.021384502996255 ]
  mass: 12.010700
- symbol: C  # 3
  coordinates: [  0.499999550000000,  0.499999700000000,  0.041666666994382 ]
  mass: 12.010700
- symbol: C  # 4
  coordinates: [  0.499999596000000,  0.499999764000000,  0.063051169007491 ]
  mass: 12.010700
- symbol: C  # 5
  coordinates: [  0.499999550000000,  0.499999700000000,  0.083333333005618 ]
  mass: 12.010700
- symbol: C  # 6
  coordinates: [  0.499999596000000,  0.499999764000000,  0.104717836001873 ]
  mass: 12.010700
- symbol: C  # 7
  coordinates: [  0.499999550000000,  0.499999700000000,  0.125000000000000 ]
  mass: 12.010700
- symbol: C  # 8
  coordinates: [  0.499999596000000,  0.499999764000000,  0.146384502996255 ]
  mass: 12.010700
- symbol: C  # 9
  coordinates: [  0.499999550000000,  0.499999700000000,  0.166666666994382 ]
  mass: 12.010700
- symbol: C  # 10
  coordinates: [  0.499999596000000,  0.499999764000000,  0.188051169007491 ]
  mass: 12.010700
- symbol: C  # 11
  coordinates: [  0.499999550000000,  0.499999700000000,  0.208333333005618 ]
  mass: 12.010700
- symbol: C  # 12
  coordinates: [  0.499999596000000,  0.499999764000000,  0.229717836001873 ]
  mass: 12.010700
- symbol: C  # 13
  coordinates: [  0.499999550000000,  0.499999700000000,  0.250000000000000 ]
  mass: 12.010700
- symbol: C  # 14
  coordinates: [  0.499999596000000,  0.499999764000000,  0.271384502996255 ]
  mass: 12.010700
- symbol: C  # 15
  coordinates: [  0.499999550000000,  0.499999700000000,  0.291666666994382 ]
  mass: 12.010700
- symbol: C  # 16
  coordinates: [  0.499999596000000,  0.499999764000000,  0.313051169007491 ]
  mass: 12.010700
- symbol: C  # 17
  coordinates: [  0.499999550000000,  0.499999700000000,  0.333333333005618 ]
  mass: 12.010700
- symbol: C  # 18
  coordinates: [  0.499999596000000,  0.499999764000000,  0.354717836001873 ]
  mass: 12.010700
- symbol: C  # 19
  coordinates: [  0.499999550000000,  0.499999700000000,  0.375000000000000 ]
  mass: 12.010700
- symbol: C  # 20
  coordinates: [  0.499999596000000,  0.499999764000000,  0.396384502996255 ]
  mass: 12.010700
- symbol: C  # 21
  coordinates: [  0.499999550000000,  0.499999700000000,  0.416666666994382 ]
  mass: 12.010700
- symbol: C  # 22
  coordinates: [  0.499999596000000,  0.499999764000000,  0.438051169007491 ]
  mass: 12.010700
- symbol: C  # 23
  coordinates: [  0.499999550000000,  0.499999700000000,  0.458333333005618 ]
  mass: 12.010700
- symbol: C  # 24
  coordinates: [  0.499999596000000,  0.499999764000000,  0.479717836001873 ]
  mass: 12.010700
- symbol: C  # 25
  coordinates: [  0.499999550000000,  0.499999700000000,  0.500000000000000 ]
  mass: 12.010700
- symbol: C  # 26
  coordinates: [  0.499999596000000,  0.499999764000000,  0.521384502996255 ]
  mass: 12.010700
- symbol: C  # 27
  coordinates: [  0.499999550000000,  0.499999700000000,  0.541666666994382 ]
  mass: 12.010700
- symbol: C  # 28
  coordinates: [  0.499999596000000,  0.499999764000000,  0.563051169007491 ]
  mass: 12.010700
- symbol: C  # 29
  coordinates: [  0.499999550000000,  0.499999700000000,  0.583333333005618 ]
  mass: 12.010700
- symbol: C  # 30
  coordinates: [  0.499999596000000,  0.499999764000000,  0.604717836001873 ]
  mass: 12.010700
- symbol: C  # 31
  coordinates: [  0.499999550000000,  0.499999700000000,  0.625000000000000 ]
  mass: 12.010700
- symbol: C  # 32
  coordinates: [  0.499999596000000,  0.499999764000000,  0.646384502996255 ]
  mass: 12.010700
- symbol: C  # 33
  coordinates: [  0.499999550000000,  0.499999700000000,  0.666666666994382 ]
  mass: 12.010700
- symbol: C  # 34
  coordinates: [  0.499999596000000,  0.499999764000000,  0.688051169007491 ]
  mass: 12.010700
- symbol: C  # 35
  coordinates: [  0.499999550000000,  0.499999700000000,  0.708333333005618 ]
  mass: 12.010700
- symbol: C  # 36
  coordinates: [  0.499999596000000,  0.499999764000000,  0.729717836001873 ]
  mass: 12.010700
- symbol: C  # 37
  coordinates: [  0.499999550000000,  0.499999700000000,  0.750000000000000 ]
  mass: 12.010700
- symbol: C  # 38
  coordinates: [  0.499999596000000,  0.499999764000000,  0.771384502996255 ]
  mass: 12.010700
- symbol: C  # 39
  coordinates: [  0.499999550000000,  0.499999700000000,  0.791666666994382 ]
  mass: 12.010700
- symbol: C  # 40
  coordinates: [  0.499999596000000,  0.499999764000000,  0.813051169007491 ]
  mass: 12.010700
- symbol: C  # 41
  coordinates: [  0.499999550000000,  0.499999700000000,  0.833333333005618 ]
  mass: 12.010700
- symbol: C  # 42
  coordinates: [  0.499999596000000,  0.499999764000000,  0.854717836001873 ]
  mass: 12.010700
- symbol: C  # 43
  coordinates: [  0.499999550000000,  0.499999700000000,  0.875000000000000 ]
  mass: 12.010700
- symbol: C  # 44
  coordinates: [  0.499999596000000,  0.499999764000000,  0.896384502996255 ]
  mass: 12.010700
- symbol: C  # 45
  coordinates: [  0.499999550000000,  0.499999700000000,  0.916666666994382 ]
  mass: 12.010700
- symbol: C  # 46
  coordinates: [  0.499999596000000,  0.499999764000000,  0.938051169007491 ]
  mass: 12.010700
- symbol: C  # 47
  coordinates: [  0.499999550000000,  0.499999700000000,  0.958333333005618 ]
  mass: 12.010700
- symbol: C  # 48
  coordinates: [  0.499999596000000,  0.499999764000000,  0.979717836001873 ]
  mass: 12.010700

phonon:
- q-position: [    0.0000000,    0.0000000,    0.0000000 ]
  distance_from_gamma:  0.000000000
  weight: 1    
  band:
  - # 1
    frequency:    -0.0157126519
  - # 2
    frequency:    -0.0157126519
  - # 3
    frequency:    -0.0027758963
  - # 4
    frequency:     1.2498893436
  - # 5
    frequency:     1.2498893436
  - # 6
    frequency:     1.2498893436
  - # 7
    frequency:     1.2498893436
  - # 8
    frequency:     1.8696510300
  - # 9
    frequency:     1.8696510300
  - # 10
    frequency:     1.8696510300
  - # 11
    frequency:     1.8696510300
  - # 12
    frequency:     2.7611586887
  - # 13
    frequency:     2.7611586887
  - # 14
    frequency:     2.7611586887
  - # 15
    frequency:     2.7611586887
  - # 16
    frequency:     3.6728890011
  - # 17
    frequency:     3.6728890011
  - # 18
    frequency:     3.6728890011
  - # 19
    frequency:     3.6728890011
  - # 20
    frequency:     4.4211736330
  - # 21
    frequency:     4.4211736330
  - # 22
    frequency:     4.6884192465
  - # 23
    frequency:     4.6884192465
  - # 24
    frequency:     4.6884192465
  - # 25
    frequency:     4.6884192465
  - # 26
    frequency:     5.7579752578
  - # 27
    frequency:     5.7579752578
  - # 28
    frequency:     5.7579752578
  - # 29
    frequency:     5.7579752578
  - # 30
    frequency:     6.9664970619
  - # 31
    frequency:     6.9664970619
  - # 32
    frequency:     6.9664970619
  - # 33
    frequency:     6.9664970619
  - # 34
    frequency:     8.2080939934
  - # 35
    frequency:     8.2080939934
  - # 36
    frequency:     8.2080939934
  - # 37
    frequency:     8.2080939934
  - # 38
    frequency:     9.0062159848
  - # 39
    frequency:     9.0062159848
  - # 40
    frequency:     9.4176250418
  - # 41
    frequency:     9.4176250418
  - # 42
    frequency:     9.4176250418
  - # 43
    frequency:     9.4176250418
  - # 44
    frequency:    10.6141757589
  - # 45
    frequency:    10.6141757589
  - # 46
    frequency:    10.6141757589
  - # 47
    frequency:    10.6141757589
  - # 48
    frequency:    11.7397465087
  - # 49
    frequency:    11.7397465087
  - # 50
    frequency:    11.7397465087
  - # 51
    frequency:    11.7397465087
  - # 52
    frequency:    12.5406256566
  - # 53
    frequency:    12.5406256566
  - # 54
    frequency:    13.0955786400
  - # 55
    frequency:    13.0955786400
  - # 56
    frequency:    13.5082731574
  - # 57
    frequency:    13.5082731574
  - # 58
    frequency:    13.7694122071
  - # 59
    frequency:    13.7694122071
  - # 60
    frequency:    13.7694122071
  - # 61
    frequency:    13.7694122071
  - # 62
    frequency:    14.4990449521
  - # 63
    frequency:    14.4990449521
  - # 64
    frequency:    14.4990449521
  - # 65
    frequency:    14.4990449521
  - # 66
    frequency:    15.0877274390
  - # 67
    frequency:    15.0877274390
  - # 68
    frequency:    15.0877274390
  - # 69
    frequency:    15.0877274390
  - # 70
    frequency:    15.5531343592
  - # 71
    frequency:    15.5531343592
  - # 72
    frequency:    15.5531343592
  - # 73
    frequency:    15.5531343592
  - # 74
    frequency:    15.8607787407
  - # 75
    frequency:    15.8607787407
  - # 76
    frequency:    15.8607787407
  - # 77
    frequency:    15.8607787407
  - # 78
    frequency:    16.0850359992
  - # 79
    frequency:    16.0850359992
  - # 80
    frequency:    16.0850359992
  - # 81
    frequency:    16.0850359992
  - # 82
    frequency:    16.2183155060
  - # 83
    frequency:    16.2183155060
  - # 84
    frequency:    16.2183155060
  - # 85
    frequency:    16.2183155060
  - # 86
    frequency:    16.3114563298
  - # 87
    frequency:    16.3114563298
  - # 88
    frequency:    16.3114563298
  - # 89
    frequency:    16.3114563298
  - # 90
    frequency:    16.3543161461
  - # 91
    frequency:    16.3543161461
  - # 92
    frequency:    16.3543161461
  - # 93
    frequency:    16.3543161461
  - # 94
    frequency:    16.3745626179
  - # 95
    frequency:    16.3745626179
  - # 96
    frequency:    16.3745626179
  - # 97
    frequency:    16.3745626179
  - # 98
    frequency:    16.3934642091
  - # 99
    frequency:    16.3934642091
  - # 100
    frequency:    16.3934642091
  - # 101
    frequency:    16.3934642091
  - # 102
    frequency:    16.4411335715
  - # 103
    frequency:    16.4411335715
  - # 104
    frequency:    17.9169802470
  - # 105
    frequency:    17.9169802470
  - # 106
    frequency:    22.2081105022
  - # 107
    frequency:    22.2081105022
  - # 108
    frequency:    26.3520953308
  - # 109
    frequency:    26.3520953308
  - # 110
    frequency:    30.3166545754
  - # 111
    frequency:    30.3166545754
  - # 112
    frequency:    34.0575128526
  - # 113
    frequency:    34.0575128526
  - # 114
    frequency:    37.4983158552
  - # 115
    frequency:    37.5140978122
  - # 116
    frequency:    37.5140978122
  - # 117
    frequency:    40.5641633341
  - # 118
    frequency:    40.5641633341
  - # 119
    frequency:    42.9231571341
  - # 120
    frequency:    42.9231571341
  - # 121
    frequency:    43.7180827385
  - # 122
    frequency:    43.7180827385
  - # 123
    frequency:    43.9075369790
  - # 124
    frequency:    50.1037231408
  - # 125
    frequency:    50.1037231408
  - # 126
    frequency:    52.3006778712
  - # 127
    frequency:    52.9705679025
  - # 128
    frequency:    52.9705679025
  - # 129
    frequency:    54.0507377836
  - # 130
    frequency:    54.0507377836
  - # 131
    frequency:    54.3812448995
  - # 132
    frequency:    54.3812448995
  - # 133
    frequency:    55.8379282594
  - # 134
    frequency:    55.8379282594
  - # 135
    frequency:    56.3979196400
  - # 136
    frequency:    56.3979196400
  - # 137
    frequency:    57.0318443962
  - # 138
    frequency:    57.0318443962
  - # 139
    frequency:    57.6408526583
  - # 140
    frequency:    57.6408526583
  - # 141
    frequency:    57.8093256612
  - # 142
    frequency:    57.8093256612
  - # 143
    frequency:    58.0543184620
  - # 144
    frequency:    58.0543184620

- q-position: [    0.0000000,    0.0000000,    0.0333333 ]
  distance_from_gamma:  0.000275269
  weight: 2    
  band:
  - # 1
    frequency:    -0.1538954177
  - # 2
    frequency:    -0.0944565059
  - # 3
    frequency:    -0.0944565059
  - # 4
    frequency:     1.2367036287
  - # 5
    frequency:     1.2367036287
  - # 6
    frequency:     1.2737206673
  - # 7
    frequency:     1.2737206673
  - # 8
    frequency:     1.8380004868
  - # 9
    frequency:     1.8380004868
  - # 10
    frequency:     1.9069588126
  - # 11
    frequency:     1.9069588126
  - # 12
    frequency:     2.7323862137
  - # 13
    frequency:     2.7323862137
  - # 14
    frequency:     2.7929097643
  - # 15
    frequency:     2.7929097643
  - # 16
    frequency:     3.6425751394
  - # 17
    frequency:     3.6425751394
  - # 18
    frequency:     3.7066270584
  - # 19
    frequency:     3.7066270584
  - # 20
    frequency:     4.2694464220
  - # 21
    frequency:     4.5730507912
  - # 22
    frequency:     4.6564606304
  - # 23
    frequency:     4.6564606304
  - # 24
    frequency:     4.7240631467
  - # 25
    frequency:     4.7240631467
  - # 26
    frequency:     5.7256931973
  - # 27
    frequency:     5.7256931973
  - # 28
    frequency:     5.7936590491
  - # 29
    frequency:     5.7936590491
  - # 30
    frequency:     6.9265567309
  - # 31
    frequency:     6.9265567309
  - # 32
    frequency:     7.0068284833
  - # 33
    frequency:     7.0068284833
  - # 34
    frequency:     8.1682210553
  - # 35
    frequency:     8.1682210553
  - # 36
    frequency:     8.2469841779
  - # 37
    frequency:     8.2469841779
  - # 38
    frequency:     8.8539253872
  - # 39
    frequency:     9.1583588966
  - # 40
    frequency:     9.3785742393
  - # 41
    frequency:     9.3785742393
  - # 42
    frequency:     9.4571784443
  - # 43
    frequency:     9.4571784443
  - # 44
    frequency:    10.5759770958
  - # 45
    frequency:    10.5759770958
  - # 46
    frequency:    10.6530374150
  - # 47
    frequency:    10.6530374150
  - # 48
    frequency:    11.7034658480
  - # 49
    frequency:    11.7034658480
  - # 50
    frequency:    11.7765909184
  - # 51
    frequency:    11.7765909184
  - # 52
    frequency:    12.5384018567
  - # 53
    frequency:    12.5384018567
  - # 54
    frequency:    13.0978694784
  - # 55
    frequency:    13.0978694784
  - # 56
    frequency:    13.3600523662
  - # 57
    frequency:    13.6563782208
  - # 58
    frequency:    13.7415737891
  - # 59
    frequency:    13.7415737891
  - # 60
    frequency:    13.7974371107
  - # 61
    frequency:    13.7974371107
  - # 62
    frequency:    14.4776716150
  - # 63
    frequency:    14.4776716150
  - # 64
    frequency:    14.5204652150
  - # 65
    frequency:    14.5204652150
  - # 66
    frequency:    15.0684509167
  - # 67
    frequency:    15.0684509167
  - # 68
    frequency:    15.1074447051
  - # 69
    frequency:    15.1074447051
  - # 70
    frequency:    15.5382091574
  - # 71
    frequency:    15.5382091574
  - # 72
    frequency:    15.5660561348
  - # 73
    frequency:    15.5660561348
  - # 74
    frequency:    15.8528234839
  - # 75
    frequency:    15.8528234839
  - # 76
    frequency:    15.8691694191
  - # 77
    frequency:    15.8691694191
  - # 78
    frequency:    16.0779041691
  - # 79
    frequency:    16.0779041691
  - # 80
    frequency:    16.0918212686
  - # 81
    frequency:    16.0918212686
  - # 82
    frequency:    16.2140520730
  - # 83
    frequency:    16.2140520730
  - # 84
    frequency:    16.2223247821
  - # 85
    frequency:    16.2223247821
  - # 86
    frequency:    16.3095654199
  - # 87
    frequency:    16.3095654199
  - # 88
    frequency:    16.3133219282
  - # 89
    frequency:    16.3133219282
  - # 90
    frequency:    16.3534118976
  - # 91
    frequency:    16.3534118976
  - # 92
    frequency:    16.3552684457
  - # 93
    frequency:    16.3552684457
  - # 94
    frequency:    16.3733616678
  - # 95
    frequency:    16.3733616678
  - # 96
    frequency:    16.3759579729
  - # 97
    frequency:    16.3759579729
  - # 98
    frequency:    16.3931855271
  - # 99
    frequency:    16.3931855271
  - # 100
    frequency:    16.3937035700
  - # 101
    frequency:    16.3937035700
  - # 102
    frequency:    16.4384640793
  - # 103
    frequency:    16.4384640793
  - # 104
    frequency:    17.7714321298
  - # 105
    frequency:    18.0623658958
  - # 106
    frequency:    22.0674853248
  - # 107
    frequency:    22.3485480410
  - # 108
    frequency:    26.2164631252
  - # 109
    frequency:    26.4875104295
  - # 110
    frequency:    30.1880518693
  - # 111
    frequency:    30.4449843533
  - # 112
    frequency:    33.9368373126
  - # 113
    frequency:    34.1779575684
  - # 114
    frequency:    37.4045790521
  - # 115
    frequency:    37.5131389217
  - # 116
    frequency:    37.6231506271
  - # 117
    frequency:    40.4711678608
  - # 118
    frequency:    40.6564390929
  - # 119
    frequency:    42.8616064523
  - # 120
    frequency:    42.9832170585
  - # 121
    frequency:    43.4554063386
  - # 122
    frequency:    43.9063452528
  - # 123
    frequency:    43.9781223530
  - # 124
    frequency:    49.9363404990
  - # 125
    frequency:    50.2684052687
  - # 126
    frequency:    52.3015193133
  - # 127
    frequency:    52.9311758936
  - # 128
    frequency:    53.0107455591
  - # 129
    frequency:    53.9481257576
  - # 130
    frequency:    54.1515945327
  - # 131
    frequency:    54.3308365076
  - # 132
    frequency:    54.4316633696
  - # 133
    frequency:    55.7926754204
  - # 134
    frequency:    55.8828691053
  - # 135
    frequency:    56.3398015135
  - # 136
    frequency:    56.4548345997
  - # 137
    frequency:    56.9978866421
  - # 138
    frequency:    57.0653425282
  - # 139
    frequency:    57.6136472430
  - # 140
    frequency:    57.6671361590
  - # 141
    frequency:    57.7915553926
  - # 142
    frequency:    57.8264990544
  - # 143
    frequency:    58.0521348713
  - # 144
    frequency:    58.0557672714

- q-position: [    0.0000000,    0.0000000,    0.0666667 ]
  distance_from_gamma:  0.000550538
  weight: 2    
  band:
  - # 1
    frequency:    -0.2952843758
  - # 2
    frequency:    -0.1789060951
  - # 3
    frequency:    -0.1789060951
  - # 4
    frequency:     1.2308898240
  - # 5
    frequency:     1.2308898240
  - # 6
    frequency:     1.3087475984
  - # 7
    frequency:     1.3087475984
  - # 8
    frequency:     1.8132187332
  - # 9
    frequency:     1.8132187332
  - # 10
    frequency:     1.9480027727
  - # 11
    frequency:     1.9480027727
  - # 12
    frequency:     2.7062596986
  - # 13
    frequency:     2.7062596986
  - # 14
    frequency:     2.8274733271
  - # 15
    frequency:     2.8274733271
  - # 16
    frequency:     3.6153356485
  - # 17
    frequency:     3.6153356485
  - # 18
    frequency:     3.7435975308
  - # 19
    frequency:     3.7435975308
  - # 20
    frequency:     4.1167823158
  - # 21
    frequency:     4.6278911414
  - # 22
    frequency:     4.6278911414
  - # 23
    frequency:     4.7259107429
  - # 24
    frequency:     4.7630680077
  - # 25
    frequency:     4.7630680077
  - # 26
    frequency:     5.6962309474
  - # 27
    frequency:     5.6962309474
  - # 28
    frequency:     5.8328629116
  - # 29
    frequency:     5.8328629116
  - # 30
    frequency:     6.8872087923
  - # 31
    frequency:     6.8872087923
  - # 32
    frequency:     7.0472601312
  - # 33
    frequency:     7.0472601312
  - # 34
    frequency:     8.1272987260
  - # 35
    frequency:     8.1272987260
  - # 36
    frequency:     8.2851417362
  - # 37
    frequency:     8.2851417362
  - # 38
    frequency:     8.7017602354
  - # 39
    frequency:     9.3101147331
  - # 40
    frequency:     9.3397234085
  - # 41
    frequency:     9.3397234085
  - # 42
    frequency:     9.4974430118
  - # 43
    frequency:     9.4974430118
  - # 44
    frequency:    10.5382524506
  - # 45
    frequency:    10.5382524506
  - # 46
    frequency:    10.6926261106
  - # 47
    frequency:    10.6926261106
  - # 48
    frequency:    11.6678576153
  - # 49
    frequency:    11.6678576153
  - # 50
    frequency:    11.8137496688
  - # 51
    frequency:    11.8137496688
  - # 52
    frequency:    12.5318779747
  - # 53
    frequency:    12.5318779747
  - # 54
    frequency:    13.1045533559
  - # 55
    frequency:    13.1045533559
  - # 56
    frequency:    13.2115757634
  - # 57
    frequency:    13.7141501273
  - # 58
    frequency:    13.7141501273
  - # 59
    frequency:    13.8045011498
  - # 60
    frequency:    13.8253950883
  - # 61
    frequency:    13.8253950883
  - # 62
    frequency:    14.4562143547
  - # 63
    frequency:    14.4562143547
  - # 64
    frequency:    14.5420516571
  - # 65
    frequency:    14.5420516571
  - # 66
    frequency:    15.0499345329
  - # 67
    frequency:    15.0499345329
  - # 68
    frequency:    15.1271612031
  - # 69
    frequency:    15.1271612031
  - # 70
    frequency:    15.5215856006
  - # 71
    frequency:    15.5215856006
  - # 72
    frequency:    15.5769862835
  - # 73
    frequency:    15.5769862835
  - # 74
    frequency:    15.8451485657
  - # 75
    frequency:    15.8451485657
  - # 76
    frequency:    15.8780293532
  - # 77
    frequency:    15.8780293532
  - # 78
    frequency:    16.0706509857
  - # 79
    frequency:    16.0706509857
  - # 80
    frequency:    16.0980645682
  - # 81
    frequency:    16.0980645682
  - # 82
    frequency:    16.2096083758
  - # 83
    frequency:    16.2096083758
  - # 84
    frequency:    16.2260356286
  - # 85
    frequency:    16.2260356286
  - # 86
    frequency:    16.3075901564
  - # 87
    frequency:    16.3075901564
  - # 88
    frequency:    16.3152221308
  - # 89
    frequency:    16.3152221308
  - # 90
    frequency:    16.3526302579
  - # 91
    frequency:    16.3526302579
  - # 92
    frequency:    16.3561735150
  - # 93
    frequency:    16.3561735150
  - # 94
    frequency:    16.3723357312
  - # 95
    frequency:    16.3723357312
  - # 96
    frequency:    16.3775607257
  - # 97
    frequency:    16.3775607257
  - # 98
    frequency:    16.3925892461
  - # 99
    frequency:    16.3925892461
  - # 100
    frequency:    16.3941695102
  - # 101
    frequency:    16.3941695102
  - # 102
    frequency:    16.4308406402
  - # 103
    frequency:    16.4308406402
  - # 104
    frequency:    17.6258074976
  - # 105
    frequency:    18.2075112072
  - # 106
    frequency:    21.9266080662
  - # 107
    frequency:    22.4888649182
  - # 108
    frequency:    26.0806677298
  - # 109
    frequency:    26.6226589995
  - # 110
    frequency:    30.0591221296
  - # 111
    frequency:    30.5730991549
  - # 112
    frequency:    33.8159663782
  - # 113
    frequency:    34.2981210365
  - # 114
    frequency:    37.2945793201
  - # 115
    frequency:    37.5569528804
  - # 116
    frequency:    37.7317574768
  - # 117
    frequency:    40.3774905958
  - # 118
    frequency:    40.7479559037
  - # 119
    frequency:    42.7985816841
  - # 120
    frequency:    43.0417672889
  - # 121
    frequency:    43.1908528220
  - # 122
    frequency:    43.9027732837
  - # 123
    frequency:    44.2348800671
  - # 124
    frequency:    49.7659807912
  - # 125
    frequency:    50.4306452475
  - # 126
    frequency:    52.3040404935
  - # 127
    frequency:    52.8925876163
  - # 128
    frequency:    53.0516936769
  - # 129
    frequency:    53.8438747418
  - # 130
    frequency:    54.2505869041
  - # 131
    frequency:    54.2804872522
  - # 132
    frequency:    54.4820431855
  - # 133
    frequency:    55.7470766363
  - # 134
    frequency:    55.9275337805
  - # 135
    frequency:    56.2803679499
  - # 136
    frequency:    56.5106546242
  - # 137
    frequency:    56.9635223490
  - # 138
    frequency:    57.0983260341
  - # 139
    frequency:    57.5855909165
  - # 140
    frequency:    57.6924294423
  - # 141
    frequency:    57.7731404442
  - # 142
    frequency:    57.8431258276
  - # 143
    frequency:    58.0491518155
  - # 144
    frequency:    58.0565454764

- q-position: [    0.0000000,    0.0000000,    0.1000000 ]
  distance_from_gamma:  0.000825807
  weight: 2    
  band:
  - # 1
    frequency:    -0.4116056658
  - # 2
    frequency:    -0.2478015519
  - # 3
    frequency:    -0.2478015519
  - # 4
    frequency:     1.2274495860
  - # 5
    frequency:     1.2274495860
  - # 6
    frequency:     1.3526269005
  - # 7
    frequency:     1.3526269005
  - # 8
    frequency:     1.7954152997
  - # 9
    frequency:     1.7954152997
  - # 10
    frequency:     1.9906210082
  - # 11
    frequency:     1.9906210082
  - # 12
    frequency:     2.6820617218
  - # 13
    frequency:     2.6820617218
  - # 14
    frequency:     2.8641671904
  - # 15
    frequency:     2.8641671904
  - # 16
    frequency:     3.5903269795
  - # 17
    frequency:     3.5903269795
  - # 18
    frequency:     3.7831129356
  - # 19
    frequency:     3.7831129356
  - # 20
    frequency:     3.9620970628
  - # 21
    frequency:     4.6018474043
  - # 22
    frequency:     4.6018474043
  - # 23
    frequency:     4.8045518704
  - # 24
    frequency:     4.8045518704
  - # 25
    frequency:     4.8801654690
  - # 26
    frequency:     5.6686111533
  - # 27
    frequency:     5.6686111533
  - # 28
    frequency:     5.8752479632
  - # 29
    frequency:     5.8752479632
  - # 30
    frequency:     6.8485106463
  - # 31
    frequency:     6.8485106463
  - # 32
    frequency:     7.0874885370
  - # 33
    frequency:     7.0874885370
  - # 34
    frequency:     8.0854449851
  - # 35
    frequency:     8.0854449851
  - # 36
    frequency:     8.3229589231
  - # 37
    frequency:     8.3229589231
  - # 38
    frequency:     8.5499537842
  - # 39
    frequency:     9.3007408803
  - # 40
    frequency:     9.3007408803
  - # 41
    frequency:     9.4613383080
  - # 42
    frequency:     9.5384881792
  - # 43
    frequency:     9.5384881792
  - # 44
    frequency:    10.5007232063
  - # 45
    frequency:    10.5007232063
  - # 46
    frequency:    10.7328672731
  - # 47
    frequency:    10.7328672731
  - # 48
    frequency:    11.6328731315
  - # 49
    frequency:    11.6328731315
  - # 50
    frequency:    11.8508761833
  - # 51
    frequency:    11.8508761833
  - # 52
    frequency:    12.5214520327
  - # 53
    frequency:    12.5214520327
  - # 54
    frequency:    13.0627342553
  - # 55
    frequency:    13.1151163104
  - # 56
    frequency:    13.1151163104
  - # 57
    frequency:    13.6872954061
  - # 58
    frequency:    13.6872954061
  - # 59
    frequency:    13.8530592357
  - # 60
    frequency:    13.8530592357
  - # 61
    frequency:    13.9527349447
  - # 62
    frequency:    14.4345681853
  - # 63
    frequency:    14.4345681853
  - # 64
    frequency:    14.5638733659
  - # 65
    frequency:    14.5638733659
  - # 66
    frequency:    15.0323072922
  - # 67
    frequency:    15.0323072922
  - # 68
    frequency:    15.1464100331
  - # 69
    frequency:    15.1464100331
  - # 70
    frequency:    15.5038354379
  - # 71
    frequency:    15.5038354379
  - # 72
    frequency:    15.5862400503
  - # 73
    frequency:    15.5862400503
  - # 74
    frequency:    15.8375163798
  - # 75
    frequency:    15.8375163798
  - # 76
    frequency:    15.8872605532
  - # 77
    frequency:    15.8872605532
  - # 78
    frequency:    16.0634828020
  - # 79
    frequency:    16.0634828020
  - # 80
    frequency:    16.1036419953
  - # 81
    frequency:    16.1036419953
  - # 82
    frequency:    16.2050772630
  - # 83
    frequency:    16.2050772630
  - # 84
    frequency:    16.2294397144
  - # 85
    frequency:    16.2294397144
  - # 86
    frequency:    16.3054835426
  - # 87
    frequency:    16.3054835426
  - # 88
    frequency:    16.3172045910
  - # 89
    frequency:    16.3172045910
  - # 90
    frequency:    16.3520049584
  - # 91
    frequency:    16.3520049584
  - # 92
    frequency:    16.3569418046
  - # 93
    frequency:    16.3569418046
  - # 94
    frequency:    16.3714726984
  - # 95
    frequency:    16.3714726984
  - # 96
    frequency:    16.3793615455
  - # 97
    frequency:    16.3793615455
  - # 98
    frequency:    16.3914676575
  - # 99
    frequency:    16.3914676575
  - # 100
    frequency:    16.3950407488
  - # 101
    frequency:    16.3950407488
  - # 102
    frequency:    16.4193514802
  - # 103
    frequency:    16.4193514802
  - # 104
    frequency:    17.4801774620
  - # 105
    frequency:    18.3523670205
  - # 106
    frequency:    21.7854346390
  - # 107
    frequency:    22.6291128694
  - # 108
    frequency:    25.9447532106
  - # 109
    frequency:    26.7575094195
  - # 110
    frequency:    29.9298297608
  - # 111
    frequency:    30.7010454307
  - # 112
    frequency:    33.6949112911
  - # 113
    frequency:    34.4179499915
  - # 114
    frequency:    37.1840945340
  - # 115
    frequency:    37.6279013941
  - # 116
    frequency:    37.8399362000
  - # 117
    frequency:    40.2831618415
  - # 118
    frequency:    40.8386795766
  - # 119
    frequency:    42.7341025170
  - # 120
    frequency:    42.9251589777
  - # 121
    frequency:    43.0987819408
  - # 122
    frequency:    43.8968300772
  - # 123
    frequency:    44.4879323823
  - # 124
    frequency:    49.5924121690
  - # 125
    frequency:    50.5906275181
  - # 126
    frequency:    52.3082326695
  - # 127
    frequency:    52.8548291954
  - # 128
    frequency:    53.0933939833
  - # 129
    frequency:    53.7380701912
  - # 130
    frequency:    54.2302377535
  - # 131
    frequency:    54.3476480228
  - # 132
    frequency:    54.5323449415
  - # 133
    frequency:    55.7011106505
  - # 134
    frequency:    55.9719486875
  - # 135
    frequency:    56.2195295347
  - # 136
    frequency:    56.5654585669
  - # 137
    frequency:    56.9287900583
  - # 138
    frequency:    57.1307512228
  - # 139
    frequency:    57.5567363252