Siesta Version  : siesta-4.1-1036
Architecture    : unknown
Compiler version: ifort (IFORT) 2021.6.0 20220226
Compiler flags  : mpiifort -O2 -fPIC -xSSE4.2 -fp-model source
PP flags        : -DFC_HAVE_ABORT -DMPI -DCDF -DNCDF -DNCDF_4
Libraries       : libncdf.a libfdict.a -lmkl_intel_lp64 -lmkl_sequential -lmkl_blas95_lp64 -lmkkl_scalapack_lp64  -lmkl_blacs_intelmpi_lp64 -lmkl_lapack95_lp64 -lmkl_core -lpthread -lm -ldl  -lnetcdff -lnetcdf -lhdf5_hl -lhdf5 -lz
PARALLEL version
NetCDF support
NetCDF-4 support

* Running on 12 nodes in parallel
>> Start of run:   2-AUG-2023  15:23:16

                           ***********************       
                           *  WELCOME TO SIESTA  *       
                           ***********************       

reinit: Reading from standard input
reinit: Dumped input in INPUT_TMP.44067
************************** Dump of input data file ****************************
#RUN.fdf generated by NanoCore
#(1) General system descriptors
SystemName    siesta
SystemLabel    siesta
%include STRUCT.fdf
%include BASIS.fdf
%include KPT.fdf
%include TS.fdf
XC.functional    GGA
XC.authors    PBE
MeshCutoff    100.000000 Ry
MaxSCFIterations    500
DM.MixingWeight    0.01
DM.PulayOnFile    F
DM.UseSaveDM    T
SCFMustConverge    T
NeglNonOverlapInt    F
SolutionMethod    Transiesta
ElectronicTemperature    300.0 K
SaveElectrostaticPotential    T
************************** End of input data file *****************************

reinit: -----------------------------------------------------------------------
reinit: System Name: siesta
reinit: -----------------------------------------------------------------------
reinit: System Label: siesta
reinit: -----------------------------------------------------------------------

initatom: Reading input for the pseudopotentials and atomic orbitals ----------
Species number:   1 Atomic number:   14 Label: Si
Species number:   2 Atomic number:    8 Label: O
 
Ground state valence configuration:   3s02  3p02
Reading pseudopotential information in formatted form from Si.psf

Valence configuration for pseudopotential generation:
3s( 2.00) rc: 1.75
3p( 2.00) rc: 1.94
3d( 0.00) rc: 2.09
4f( 0.00) rc: 2.09
Ground state valence configuration:   2s02  2p04
Reading pseudopotential information in formatted form from O.psf

Valence configuration for pseudopotential generation:
2s( 2.00) rc: 1.47
2p( 4.00) rc: 1.47
3d( 0.00) rc: 1.47
4f( 0.00) rc: 1.47
For Si, standard SIESTA heuristics set lmxkb to 2
 (one more than the basis l, including polarization orbitals).
Use PS.lmax or PS.KBprojectors blocks to override.
For O, standard SIESTA heuristics set lmxkb to 2
 (one more than the basis l, including polarization orbitals).
Use PS.lmax or PS.KBprojectors blocks to override.

<basis_specs>
===============================================================================
Si                   Z=  14    Mass=  28.090        Charge= 0.17977+309
Lmxo=1 Lmxkb= 2    BasisType=split      Semic=F
L=0  Nsemic=0  Cnfigmx=3
          n=1  nzeta=1  polorb=0
            splnorm:   0.15000    
               vcte:    0.0000    
               rinn:    0.0000    
               qcoe:    0.0000    
               qyuk:    0.0000    
               qwid:   0.10000E-01
                rcs:    0.0000    
            lambdas:    1.0000    
L=1  Nsemic=0  Cnfigmx=3
          n=1  nzeta=1  polorb=0
            splnorm:   0.15000    
               vcte:    0.0000    
               rinn:    0.0000    
               qcoe:    0.0000    
               qyuk:    0.0000    
               qwid:   0.10000E-01
                rcs:    0.0000    
            lambdas:    1.0000    
-------------------------------------------------------------------------------
L=0  Nkbl=1  erefs: 0.17977+309
L=1  Nkbl=1  erefs: 0.17977+309
L=2  Nkbl=1  erefs: 0.17977+309
===============================================================================
</basis_specs>

atom: Called for Si                    (Z =  14)

read_vps: Pseudopotential generation method:
read_vps: ATM3      Troullier-Martins                       
Total valence charge:    4.00000

read_vps: Pseudopotential includes a core correction:
read_vps: Pseudo-core for xc-correction

xc_check: Exchange-correlation functional:
xc_check: GGA Perdew, Burke & Ernzerhof 1996
V l=0 = -2*Zval/r beyond r=  2.0104
V l=1 = -2*Zval/r beyond r=  2.0873
V l=2 = -2*Zval/r beyond r=  2.1670
All V_l potentials equal beyond r=  2.0873
This should be close to max(r_c) in ps generation
All pots = -2*Zval/r beyond r=  2.1670

VLOCAL1: 99.0% of the norm of Vloc inside      9.963 Ry
VLOCAL1: 99.9% of the norm of Vloc inside     22.707 Ry
atom: Maximum radius for 4*pi*r*r*local-pseudopot. charge    2.48649
atom: Maximum radius for r*vlocal+2*Zval:    2.16704
GHOST: No ghost state for L =  0
GHOST: No ghost state for L =  1
GHOST: No ghost state for L =  2

KBgen: Kleinman-Bylander projectors: 
   l= 0   rc=  2.306811   el= -0.791441   Ekb=  5.258410   kbcos=  0.290410
   l= 1   rc=  2.425092   el= -0.300632   Ekb=  1.907369   kbcos=  0.287452
   l= 2   rc=  2.549439   el=  0.001958   Ekb= -1.814564   kbcos= -0.057011

KBgen: Total number of  Kleinman-Bylander projectors:    9
atom: -------------------------------------------------------------------------

atom: SANKEY-TYPE ORBITALS:

SPLIT: Orbitals with angular momentum L= 0

SPLIT: Basis orbitals for state 3s

SPLIT: PAO cut-off radius determined from an
SPLIT: energy shift=  0.020000 Ry

   izeta = 1
                 lambda =    1.000000
                     rc =    5.007352
                 energy =   -0.772735
                kinetic =    0.581259
    potential(screened) =   -1.353994
       potential(ionic) =   -3.769451

SPLIT: Orbitals with angular momentum L= 1

SPLIT: Basis orbitals for state 3p

SPLIT: PAO cut-off radius determined from an
SPLIT: energy shift=  0.020000 Ry

   izeta = 1
                 lambda =    1.000000
                     rc =    6.270866
                 energy =   -0.282590
                kinetic =    0.876421
    potential(screened) =   -1.159012
       potential(ionic) =   -3.390735
atom: Total number of Sankey-type orbitals:  4

atm_pop: Valence configuration (for local Pseudopot. screening):
 3s( 2.00)                                                            
 3p( 2.00)                                                            
Vna: chval, zval:    4.00000   4.00000

Vna:  Cut-off radius for the neutral-atom potential:   6.270866
comcore: Pseudo-core radius Rcore=  2.999314

atom: _________________________________________________________________________

<basis_specs>
===============================================================================
O                    Z=   8    Mass=  16.000        Charge= 0.17977+309
Lmxo=1 Lmxkb= 2    BasisType=split      Semic=F
L=0  Nsemic=0  Cnfigmx=2
          n=1  nzeta=1  polorb=0
            splnorm:   0.15000    
               vcte:    0.0000    
               rinn:    0.0000    
               qcoe:    0.0000    
               qyuk:    0.0000    
               qwid:   0.10000E-01
                rcs:    0.0000    
            lambdas:    1.0000    
L=1  Nsemic=0  Cnfigmx=2
          n=1  nzeta=1  polorb=0
            splnorm:   0.15000    
               vcte:    0.0000    
               rinn:    0.0000    
               qcoe:    0.0000    
               qyuk:    0.0000    
               qwid:   0.10000E-01
                rcs:    0.0000    
            lambdas:    1.0000    
-------------------------------------------------------------------------------
L=0  Nkbl=1  erefs: 0.17977+309
L=1  Nkbl=1  erefs: 0.17977+309
L=2  Nkbl=1  erefs: 0.17977+309
===============================================================================
</basis_specs>

atom: Called for O                     (Z =   8)

read_vps: Pseudopotential generation method:
read_vps: ATM3      Troullier-Martins                       
Total valence charge:    6.00000

read_vps: Pseudopotential includes a core correction:
read_vps: Pseudo-core for xc-correction

xc_check: Exchange-correlation functional:
xc_check: GGA Perdew, Burke & Ernzerhof 1996
V l=0 = -2*Zval/r beyond r=  1.4482
V l=1 = -2*Zval/r beyond r=  1.4482
V l=2 = -2*Zval/r beyond r=  1.4482
All V_l potentials equal beyond r=  1.4482
This should be close to max(r_c) in ps generation
All pots = -2*Zval/r beyond r=  1.4482

VLOCAL1: 99.0% of the norm of Vloc inside     20.696 Ry
VLOCAL1: 99.9% of the norm of Vloc inside     47.167 Ry
atom: Maximum radius for 4*pi*r*r*local-pseudopot. charge    1.74697
atom: Maximum radius for r*vlocal+2*Zval:    1.52250
GHOST: No ghost state for L =  0
GHOST: No ghost state for L =  1
GHOST: No ghost state for L =  2

KBgen: Kleinman-Bylander projectors: 
   l= 0   rc=  1.620715   el= -1.757696   Ekb=  4.880948   kbcos=  0.293490
   l= 1   rc=  1.600578   el= -0.664256   Ekb= -6.909822   kbcos= -0.499892
   l= 2   rc=  1.703827   el=  0.002031   Ekb= -1.539219   kbcos= -0.006778

KBgen: Total number of  Kleinman-Bylander projectors:    9
atom: -------------------------------------------------------------------------

atom: SANKEY-TYPE ORBITALS:

SPLIT: Orbitals with angular momentum L= 0

SPLIT: Basis orbitals for state 2s

SPLIT: PAO cut-off radius determined from an
SPLIT: energy shift=  0.020000 Ry

   izeta = 1
                 lambda =    1.000000
                     rc =    3.305093
                 energy =   -1.740009
                kinetic =    1.602198
    potential(screened) =   -3.342207
       potential(ionic) =  -11.287121

SPLIT: Orbitals with angular momentum L= 1

SPLIT: Basis orbitals for state 2p

SPLIT: PAO cut-off radius determined from an
SPLIT: energy shift=  0.020000 Ry

   izeta = 1
                 lambda =    1.000000
                     rc =    3.937239
                 energy =   -0.646301
                kinetic =    4.684247
    potential(screened) =   -5.330548
       potential(ionic) =  -13.029785
atom: Total number of Sankey-type orbitals:  4

atm_pop: Valence configuration (for local Pseudopot. screening):
 2s( 2.00)                                                            
 2p( 4.00)                                                            
Vna: chval, zval:    6.00000   6.00000

Vna:  Cut-off radius for the neutral-atom potential:   3.937239
comcore: Pseudo-core radius Rcore=  1.377587

atom: _________________________________________________________________________

prinput: Basis input ----------------------------------------------------------

PAO.BasisType split     

%block ChemicalSpeciesLabel
    1   14 Si                      # Species index, atomic number, species label
    2    8 O                       # Species index, atomic number, species label
%endblock ChemicalSpeciesLabel

%block PAO.Basis                 # Define Basis set
Si                    2                    # Species label, number of l-shells
 n=3   0   1                         # n, l, Nzeta 
   5.007   
   1.000   
 n=3   1   1                         # n, l, Nzeta 
   6.271   
   1.000   
O                     2                    # Species label, number of l-shells
 n=2   0   1                         # n, l, Nzeta 
   3.305   
   1.000   
 n=2   1   1                         # n, l, Nzeta 
   3.937   
   1.000   
%endblock PAO.Basis

prinput: ----------------------------------------------------------------------

Dumping basis to NetCDF file Si.ion.nc
Dumping basis to NetCDF file O.ion.nc
coor:   Atomic-coordinates input format  =     Cartesian coordinates
coor:                                          (in Angstroms)

siesta: Atomic coordinates (Bohr) and species
siesta:      1.81668   1.94407  18.89624  1        1
siesta:      9.22478   9.35218  18.89624  1        2
siesta:      9.22478   1.94407  18.89624  1        3
siesta:      1.81668   9.35218  18.89624  1        4
siesta:      5.52073   1.94407  21.51540  1        5
siesta:     12.92884   9.35218  21.51540  1        6
siesta:     12.92884   1.94407  21.51540  1        7
siesta:      5.52073   9.35218  21.51540  1        8
siesta:     12.92884   5.64812  24.13456  1        9
siesta:      5.52073  13.05623  24.13456  1       10
siesta:      5.52073   5.64813  24.13456  1       11
siesta:     12.92884  13.05623  24.13456  1       12
siesta:      1.81668   5.64812  26.75372  1       13
siesta:      9.22478  13.05623  26.75372  1       14
siesta:      9.22478   5.64813  26.75372  1       15
siesta:      1.81668  13.05623  26.75372  1       16
siesta:      1.81668   1.94407  29.37288  1       17
siesta:      9.22478   9.35218  29.37288  1       18
siesta:      9.22478   1.94407  29.37288  1       19
siesta:      1.81668   9.35218  29.37288  1       20
siesta:      5.52073   1.94407  31.99204  1       21
siesta:     12.92884   9.35218  31.99204  1       22
siesta:     12.92884   1.94407  31.99204  1       23
siesta:      5.52073   9.35218  31.99204  1       24
siesta:     12.92884   5.64812  34.61121  1       25
siesta:      5.52073  13.05623  34.61121  1       26
siesta:      5.52073   5.64813  34.61121  1       27
siesta:     12.92884  13.05623  34.61121  1       28
siesta:      1.81668   5.64812  37.23037  1       29
siesta:      9.22478  13.05623  37.23037  1       30
siesta:      9.22478   5.64813  37.23037  1       31
siesta:      1.81668  13.05623  37.23037  1       32
siesta:      1.81668   1.94407  39.84953  1       33
siesta:      9.22478   9.35218  39.84953  1       34
siesta:      9.22478   1.94407  39.84953  1       35
siesta:      1.81668   9.35218  39.84953  1       36
siesta:      5.52073   1.94407  42.46869  1       37
siesta:     12.92884   9.35218  42.46869  1       38
siesta:     12.92884   1.94407  42.46869  1       39
siesta:      5.52073   9.35218  42.46869  1       40
siesta:     12.92884   5.64812  45.08785  1       41
siesta:      5.52073  13.05623  45.08785  1       42
siesta:      5.52073   5.64813  45.08785  1       43
siesta:     12.92884  13.05623  45.08785  1       44
siesta:      9.22713   5.64671  47.70644  1       45
siesta:      1.81902  13.05482  47.70644  1       46
siesta:      1.81668   5.64812  47.70701  1       47
siesta:      9.22478  13.05623  47.70701  1       48
siesta:      1.82640   1.94735  50.34424  1       49
siesta:      9.23451   9.35546  50.34424  1       50
siesta:      9.23942   1.94898  50.34604  1       51
siesta:      1.83132   9.35708  50.34604  1       52
siesta:      5.53558   1.96604  52.97518  1       53
siesta:     12.94369   9.37415  52.97518  1       54
siesta:     12.94506   1.96166  52.99061  1       55
siesta:      5.53696   9.36977  52.99061  1       56
siesta:     12.95856   5.68225  55.61677  1       57
siesta:      5.55045  13.09036  55.61677  1       58
siesta:      5.54360   5.66336  55.62586  1       59
siesta:     12.95171  13.07147  55.62586  1       60
siesta:      9.25891   5.68852  58.25445  1       61
siesta:      1.85080  13.09663  58.25445  1       62
siesta:      1.84181   5.69181  58.26910  1       63
siesta:      9.24991  13.09991  58.26910  1       64
siesta:      1.82612   1.98441  60.90089  1       65
siesta:      9.23423   9.39251  60.90089  1       66
siesta:      9.29542   2.00050  60.90608  1       67
siesta:      1.88731   9.40861  60.90608  1       68
siesta:      5.56040   2.02561  63.47574  1       69
siesta:     12.96851   9.43371  63.47574  1       70
siesta:     12.97636   2.00230  63.60415  1       71
siesta:      5.56826   9.41040  63.60415  1       72
siesta:     13.00229   5.79681  66.15937  1       73
siesta:      5.59419  13.20492  66.15937  1       74
siesta:      5.55398   5.65100  66.20314  1       75
siesta:     12.96209  13.05910  66.20314  1       76
siesta:      9.30685   5.73630  68.79185  1       77
siesta:      1.89874  13.14440  68.79185  1       78
siesta:      1.84906   5.75311  68.88169  1       79
siesta:      9.25716  13.16121  68.88169  1       80
siesta:      1.27692   2.00569  71.37190  1       81
siesta:      8.68503   9.41379  71.37190  1       82
siesta:      9.93229   2.08583  71.39461  1       83
siesta:      2.52418   9.49393  71.39461  1       84
siesta:     13.01362   1.94919  72.36712  2       85
siesta:      5.60551   9.35730  72.36712  2       86
siesta:      3.05257   1.96603  74.02570  2       87
siesta:     10.46067   9.37414  74.02570  2       88
siesta:      8.22264   2.39750  74.09214  2       89
siesta:      0.81453   9.80561  74.09214  2       90
siesta:      5.63246   1.92789  75.85819  1       91
siesta:     13.04057   9.33599  75.85819  1       92
siesta:     13.31370   6.49414  77.25135  2       93
siesta:      5.90559  13.90224  77.25135  2       94
siesta:      5.31648   4.23484  78.01020  2       95
siesta:     12.72459  11.64295  78.01020  2       96
siesta:     13.29572   1.78177  79.31815  2       97
siesta:      5.88762   9.18988  79.31815  2       98
siesta:     12.63740   4.85637  79.89144  1       99
siesta:      5.22929  12.26447  79.89144  1      100
siesta:      6.48635   6.18165  80.23520  1      101
siesta:     13.89446  13.58976  80.23520  1      102
siesta:      9.58375   5.49143  80.63777  2      103
siesta:      2.17564  12.89954  80.63777  2      104
siesta:     -0.29740   5.82198  82.27288  2      105
siesta:      7.11071  13.23009  82.27288  2      106
siesta:      4.93113   5.69848  82.97752  2      107
siesta:     12.33924  13.10659  82.97752  2      108
siesta:      2.06897   5.42048  84.36072  1      109
siesta:      9.47708  12.82859  84.36072  1      110
siesta:      1.94478   2.50413  85.65573  2      111
siesta:      9.35289   9.91224  85.65573  2      112
siesta:      9.09218   0.27824  86.55834  2      113
siesta:      1.68407   7.68635  86.55834  2      114
siesta:      9.64402   5.24906  87.94760  2      115
siesta:      2.23591  12.65717  87.94760  2      116
siesta:      1.49669   0.92459  88.39294  1      117
siesta:      8.90479   8.33270  88.39294  1      118
siesta:     10.21102   2.21331  88.82389  1      119
siesta:      2.80291   9.62141  88.82389  1      120
siesta:     13.28687   1.48229  89.30064  2      121
siesta:      5.87876   8.89040  89.30064  2      122
siesta:      3.43419   2.08336  90.63441  2      123
siesta:     10.84230   9.49147  90.63441  2      124
siesta:      8.60431   1.70258  91.52180  2      125
siesta:      1.19620   9.11068  91.52180  2      126
siesta:      5.70720   1.81267  92.83555  1      127
siesta:     13.11530   9.22078  92.83555  1      128
siesta:     12.70175   6.56631  94.52689  2      129
siesta:      5.29364  13.97441  94.52689  2      130
siesta:      5.50012   4.33756  94.72975  2      131
siesta:     12.90823  11.74566  94.72975  2      132
siesta:     12.91908   1.82246  96.38202  2      133
siesta:      5.51098   9.23057  96.38202  2      134
siesta:     12.85404   4.92314  97.28438  1      135
siesta:      5.44593  12.33125  97.28438  1      136
siesta:      5.48402   6.14846  97.36192  1      137
siesta:     12.89213  13.55657  97.36192  1      138
siesta:      1.74150   5.59075  99.84856  1      139
siesta:      9.14960  12.99886  99.84856  1      140
siesta:      9.19395   5.56800  99.89011  1      141
siesta:      1.78584  12.97611  99.89011  1      142
siesta:      1.83826   1.88811 102.51725  1      143
siesta:      9.24637   9.29622 102.51725  1      144
siesta:      9.10954   1.87116 102.53824  1      145
siesta:      1.70144   9.27927 102.53824  1      146
siesta:     12.89039   1.88488 105.11238  1      147
siesta:      5.48228   9.29299 105.11238  1      148
siesta:      5.47204   1.90113 105.23086  1      149
siesta:     12.88014   9.30924 105.23086  1      150
siesta:     12.89309   5.57228 107.80589  1      151
siesta:      5.48498  12.98039 107.80589  1      152
siesta:      5.49170   5.63045 107.81956  1      153
siesta:     12.89980  13.03856 107.81956  1      154
siesta:      1.78469   5.61495 110.45273  1      155
siesta:      9.19280  13.02306 110.45273  1      156
siesta:      9.19924   5.61011 110.45694  1      157
siesta:      1.79113  13.01821 110.45694  1      158
siesta:      1.80780   1.91365 113.09420  1      159
siesta:      9.21591   9.32176 113.09420  1      160
siesta:      9.19870   1.91043 113.10001  1      161
siesta:      1.79059   9.31854 113.10001  1      162
siesta:     12.91625   1.92365 115.72971  1      163
siesta:      5.50815   9.33175 115.72971  1      164
siesta:      5.50524   1.92679 115.74342  1      165
siesta:     12.91335   9.33490 115.74342  1      166
siesta:     12.92630   5.63128 118.37359  1      167
siesta:      5.51819  13.03939 118.37359  1      168
siesta:      5.51862   5.63576 118.37639  1      169
siesta:     12.92673  13.04387 118.37639  1      170
siesta:      1.81414   5.63128 120.99274  1      171
siesta:      9.22224  13.03939 120.99274  1      172
siesta:      9.22224   5.63128 120.99274  1      173
siesta:      1.81414  13.03939 120.99274  1      174
siesta:      1.81414   1.92723 123.61191  1      175
siesta:      9.22224   9.33533 123.61191  1      176
siesta:      9.22224   1.92723 123.61191  1      177
siesta:      1.81414   9.33533 123.61191  1      178
siesta:      5.51819   1.92723 126.23107  1      179
siesta:     12.92630   9.33533 126.23107  1      180
siesta:     12.92630   1.92723 126.23107  1      181
siesta:      5.51819   9.33533 126.23107  1      182
siesta:     12.92630   5.63128 128.85023  1      183
siesta:      5.51819  13.03939 128.85023  1      184
siesta:      5.51819   5.63128 128.85023  1      185
siesta:     12.92630  13.03939 128.85023  1      186
siesta:      1.81414   5.63128 131.46939  1      187
siesta:      9.22224  13.03939 131.46939  1      188
siesta:      9.22224   5.63128 131.46939  1      189
siesta:      1.81414  13.03939 131.46939  1      190
siesta:      1.81414   1.92723 134.08855  1      191
siesta:      9.22224   9.33533 134.08855  1      192
siesta:      9.22224   1.92723 134.08855  1      193
siesta:      1.81414   9.33533 134.08855  1      194
siesta:      5.51819   1.92723 136.70772  1      195
siesta:     12.92630   9.33533 136.70772  1      196
siesta:     12.92630   1.92723 136.70772  1      197
siesta:      5.51819   9.33533 136.70772  1      198
siesta:     12.92630   5.63128 139.32688  1      199
siesta:      5.51819  13.03939 139.32688  1      200
siesta:      5.51819   5.63128 139.32688  1      201
siesta:     12.92630  13.03939 139.32688  1      202
siesta:      1.81414   5.63128 141.94604  1      203
siesta:      9.22224  13.03939 141.94604  1      204
siesta:      9.22224   5.63128 141.94604  1      205
siesta:      1.81414  13.03939 141.94604  1      206
siesta:      1.81414   1.92723 144.56520  1      207
siesta:      9.22224   9.33533 144.56520  1      208
siesta:      9.22224   1.92723 144.56520  1      209
siesta:      1.81414   9.33533 144.56520  1      210
siesta:      5.51819   1.92723 147.18436  1      211
siesta:     12.92630   9.33533 147.18436  1      212
siesta:     12.92630   1.92723 147.18436  1      213
siesta:      5.51819   9.33533 147.18436  1      214
siesta:     12.92630   5.63128 149.80352  1      215
siesta:      5.51819  13.03939 149.80352  1      216
siesta:      5.51819   5.63128 149.80352  1      217
siesta:     12.92630  13.03939 149.80352  1      218

siesta: System type = slab      

initatomlists: Number of atoms, orbitals, and projectors:    218   872  1962

siesta: ******************** Simulation parameters ****************************
siesta:
siesta: The following are some of the parameters of the simulation.
siesta: A complete list of the parameters used, including default values,
siesta: can be found in file out.fdf
siesta:
redata: Spin configuration                          = none
redata: Number of spin components                   = 1
redata: Time-Reversal Symmetry                      = T
redata: Spin-spiral                                 = F
redata: Long output                                 =   F
redata: Number of Atomic Species                    =        2
redata: Charge density info will appear in .RHO file
redata: Write Mulliken Pop.                         = NO
redata: Matel table size (NRTAB)                    =     1024
redata: Mesh Cutoff                                 =   100.0000 Ry
redata: Net charge of the system                    =     0.0000 |e|
redata: Min. number of SCF Iter                     =        0
redata: Max. number of SCF Iter                     =      500
redata: SCF convergence failure will abort job
redata: SCF mix quantity                            = Hamiltonian
redata: Mix DM or H after convergence               =   F
redata: Recompute H after scf cycle                 =   F
redata: Mix DM in first SCF step                    =   T
redata: Write Pulay info on disk                    =   F
redata: New DM Mixing Weight                        =     0.0100
redata: New DM Occupancy tolerance                  = 0.000000000001
redata: No kicks to SCF
redata: DM Mixing Weight for Kicks                  =     0.5000
redata: Require Harris convergence for SCF          =   F
redata: Harris energy tolerance for SCF             =     0.000100 eV
redata: Require DM convergence for SCF              =   T
redata: DM tolerance for SCF                        =     0.000100
redata: Require EDM convergence for SCF             =   F
redata: EDM tolerance for SCF                       =     0.001000 eV
redata: Require H convergence for SCF               =   T
redata: Hamiltonian tolerance for SCF               =     0.001000 eV
redata: Require (free) Energy convergence for SCF   =   F
redata: (free) Energy tolerance for SCF             =     0.000100 eV
redata: Using Saved Data (generic)                  =   F
redata: Use continuation files for DM               =   T
redata: Neglect nonoverlap interactions             =   F
redata: Method of Calculation                       = Transiesta
redata: Fix the spin of the system                  =   F
redata: Dynamics option                             = Single-point calculation
mix.SCF: Pulay mixing                            = Pulay
mix.SCF:    Variant                              = stable
mix.SCF:    History steps                        = 2
mix.SCF:    Linear mixing weight                 =     0.010000
mix.SCF:    Mixing weight                        =     0.010000
mix.SCF:    SVD condition                        = 0.1000E-07
redata: Save all siesta data in one NC              =   F
redata: ***********************************************************************

%block SCF.Mixers
  Pulay
%endblock SCF.Mixers

%block SCF.Mixer.Pulay
  # Mixing method
  method pulay
  variant stable

  # Mixing options
  weight 0.0100
  weight.linear 0.0100
  history 2
%endblock SCF.Mixer.Pulay
 
DM_history_depth set to one: no extrapolation allowed by default for geometry relaxation
Size of DM history Fstack: 1
Total number of electrons:   944.000000
Total ionic charge:   944.000000

* ProcessorY, Blocksize:    3  24


* Orbital distribution balance (max,min):    80    72

 Kpoints in:            6 . Kpoints trimmed:            5

siesta: k-grid: Number of k-points =     5
siesta: k-grid: Cutoff (effective) =    11.761 Ang
siesta: k-grid: Supercell and displacements
siesta: k-grid:    3   0   0      0.000
siesta: k-grid:    0   3   0      0.000
siesta: k-grid:    0   0   1      0.000
 
diag: Algorithm                                     = D&C
diag: Parallel over k                               =   F
diag: Use parallel 2D distribution                  =   T
diag: Parallel block-size                           = 24
diag: Parallel distribution                         =     3 x     4
diag: Used triangular part                          = Lower
diag: Absolute tolerance                            =  0.100E-15
diag: Orthogonalization factor                      =  0.100E-05
diag: Memory factor                                 =  1.0000

superc: Internal auxiliary supercell:     3 x     3 x     1  =       9
superc: Number of atoms, orbitals, and projectors:   1962   7848  17658
 
 Kpoints in:            6 . Kpoints trimmed:            5

transiesta: k-grid: Number of Green function k-points =     5
transiesta: k-grid: Supercell and displacements
transiesta: k-grid:    3   0   0      0.000
transiesta: k-grid:    0   3   0      0.000
transiesta: k-grid:    0   0   1      0.000
 
ts: **************************************************************
ts: Voltage                                         =    0.0000 Volts
ts: Save H and S matrices                           =    T
ts: Electronic temperature                          =  299.997806 K
ts: Transport along unit-cell vector                =    A3
ts: Transport along Cartesian vector                =    Z
ts: Fixing Hartree potential at electrode-plane     =    Right
ts: Fix Hartree potential fraction                  =    1.0000
ts: Hartree potential offset                        =    0.000000 eV
ts: Solution method                                 =    BTD
ts: BTD pivoting method                             =    atom+Left
ts: BTD creation algorithm                          =    speed
ts: SCF.TS DM tolerance                             = 0.100E-03
ts: SCF.TS Hamiltonian tolerance                    =    0.001000 eV
ts: Initialize DM by                                =    diagon
ts: Initial DM for electrodes                       =    this
ts: *** TranSiesta will NOT update forces ***
ts: Will not correct charge fluctuations
ts: TS.SCF mixing options same as SCF
ts:           >> Electrodes << 
ts: >> Left
ts:   Electrode cell pivoting: E1, E2, E3           = A1, A2, A3
ts:   GF file                                       = siesta.TSGFLeft
ts:   Reuse existing GF-file                        =    T
ts:   Electrode TSHS file                           = Left.TSHS
ts:   # atoms used in electrode                     =   32
ts:   Electrode Bloch unity [E1 x E2 x E3]          = 1 x 1 x 1
ts:   Position in geometry                          = 1 -- 32
ts:   Semi-infinite direction for electrode         = negative wrt. E3
ts:   Chemical shift                                =    0.000000 eV
ts:   Electronic temperature                        =  299.997806 K
ts:   Gamma-only electrode                          =    F
ts:   Bulk H, S in electrode region                 =    T
ts:   Cross-terms are updated
ts:   Electrode self-energy imaginary Eta           =  0.1000E-03  eV
ts:   Electrode self-energy accuracy                =  0.1000E-13  eV
ts:   Electrode inter-layer distance (semi-inf)     =    1.3860  Ang
ts: >> Right
ts:   Electrode cell pivoting: E1, E2, E3           = A1, A2, A3
ts:   GF file                                       = siesta.TSGFRight
ts:   Reuse existing GF-file                        =    T
ts:   Electrode TSHS file                           = Right.TSHS
ts:   # atoms used in electrode                     =   32
ts:   Electrode Bloch unity [E1 x E2 x E3]          = 1 x 1 x 1
ts:   Position in geometry                          = 187 -- 218
ts:   Semi-infinite direction for electrode         = positive wrt. E3
ts:   Chemical shift                                =    0.000000 eV
ts:   Electronic temperature                        =  299.997806 K
ts:   Gamma-only electrode                          =    F
ts:   Bulk H, S in electrode region                 =    T
ts:   Cross-terms are updated
ts:   Electrode self-energy imaginary Eta           =  0.1000E-03  eV
ts:   Electrode self-energy accuracy                =  0.1000E-13  eV
ts:   Electrode inter-layer distance (semi-inf)     =    1.3860  Ang
ts:  ----------------- Contour ----------------- 
ts:            >> Residual contour << 
ts: Pole chemical potential                         =    0.0000 eV
ts:    Chemical potential temperature               =  299.9978 K
ts:    Number of poles                              =   16
ts:    Top energy point                             =    2.5989 eV
ts:          >> Equilibrium contour << 
ts: Contour name                                    =    TS.Contour.c-Left
ts:   circle contour E_min                          =  -40.0000 eV
ts:   circle contour E_max                          =   -0.2585 eV
ts:   circle contour points                         =   25
ts:   circle contour method                         =    Gauss-Legendre
ts: Contour name                                    =    TS.Contour.t-Left
ts:   tail contour E_min                            =   -0.2585 eV
ts:   tail contour E_max                            =     Infinity
ts:   tail contour points                           =   10
ts:   tail contour method                           =    Gauss-Fermi (0kT)
ts: **************************************************************
 
************************ Begin: TS CHECKS AND WARNINGS ************************
Without loosing performance you can increase the equilibrium integration precision.
You can add 9 more energy points in the equilibrium contours, for FREE!
This is 9 more energy points per chemical potential.
ts: ***       TranSiesta will NOT update forces       ***
ts: *** ALL FORCES AFTER TRANSIESTA HAS RUN ARE WRONG ***
************************ End: TS CHECKS AND WARNINGS **************************


>>> TranSiesta block information for FDF-file START <<<

%block TS.ChemPots
  Left
%endblock TS.ChemPots

%block TS.ChemPot.Left
  mu  V/2
  contour.eq
   begin
    c-Left
    t-Left
   end
%endblock TS.ChemPot.Left
%block TS.Contour.c-Left
  part circle
     from -40.00000 eV + V/2 to -10. kT + V/2
      points 25
        method g-legendre
%endblock TS.Contour.c-Left
%block TS.Contour.t-Left
  part tail
     from prev to + inf
      points 10
        method g-fermi
%endblock TS.Contour.t-Left

>>> TranSiesta block information for FDF-file END <<<


transiesta: Regions of atoms:
   ## (32): Elec.Left
     [ 1 -- 32 ]
   ## (32): Elec.Right
     [ 187 -- 218 ]
   -- (154): Device
     [ 33 -- 186 ]
 
  <sparsity:Left.TSHS
    nrows_g=128 nrows=128 sparsity=4.1875 nnzs=68608, refcount: 3>
  <sparsity:(TM [--,--, 0] of: Left.TSHS)
    nrows_g=128 nrows=128 sparsity=2.9648 nnzs=48576, refcount: 3>
  <sparsity:(TM [--,--,-1] of: Left.TSHS)
    nrows_g=128 nrows=128 sparsity=.6113 nnzs=10016, refcount: 3>
 Left principal cell is perfect!

Calculating all surface Green functions for: Left
 Fermi level shift in electrode (chemical potential) :        0.00000  eV
 Atoms available    / used atoms   :     32 /     32
 Orbitals available / used orbitals:    128 /    128
 Total self-energy calculations: 255
 Saving surface Green functions in: siesta.TSGFLeft
 Estimated file size:     66.250 MB
 Lopez Sancho, Lopez Sancho & Rubio recursive surface self-energy calculation...
 Lopez Sancho, Lopez Sancho & Rubio: Mean/std iterations:     3.6941 /     0.6864
 Lopez Sancho, Lopez Sancho & Rubio: Min/Max iterations :          3 /          5
Done creating 'siesta.TSGFLeft'.

  <sparsity:Right.TSHS
    nrows_g=128 nrows=128 sparsity=4.1875 nnzs=68608, refcount: 3>
  <sparsity:(TM [--,--, 0] of: Right.TSHS)
    nrows_g=128 nrows=128 sparsity=2.9648 nnzs=48576, refcount: 3>
  <sparsity:(TM [--,--, 1] of: Right.TSHS)
    nrows_g=128 nrows=128 sparsity=.6113 nnzs=10016, refcount: 3>
 Right principal cell is perfect!

Calculating all surface Green functions for: Right
 Fermi level shift in electrode (chemical potential) :        0.00000  eV
 Atoms available    / used atoms   :     32 /     32
 Orbitals available / used orbitals:    128 /    128
 Total self-energy calculations: 255
 Saving surface Green functions in: siesta.TSGFRight
 Estimated file size:     66.250 MB
 Lopez Sancho, Lopez Sancho & Rubio recursive surface self-energy calculation...
 Lopez Sancho, Lopez Sancho & Rubio: Mean/std iterations:     3.6941 /     0.6864
 Lopez Sancho, Lopez Sancho & Rubio: Min/Max iterations :          3 /          5
Done creating 'siesta.TSGFRight'.


                     ====================================
                        Single-point calculation
                     ====================================

superc: Internal auxiliary supercell:     3 x     3 x     1  =       9
superc: Number of atoms, orbitals, and projectors:   1962   7848  17658

outcell: Unit cell vectors (Ang):
        7.840400    0.000000    0.000000
        0.000000    7.840400    0.000000
        0.000000    0.000000   89.273125

outcell: Cell vector modules (Ang)   :    7.840400    7.840400   89.273125
outcell: Cell angles (23,13,12) (deg):     90.0000     90.0000     90.0000
outcell: Cell volume (Ang**3)        :   5487.7861
<dSpData1D:S at geom step 0
  <sparsity:sparsity for geom step 0
    nrows_g=872 nrows=80 sparsity=.0432 nnzs=32844, refcount: 7>
  <dData1D:(new from dSpData1D) n=32844, refcount: 1>
refcount: 1>
new_DM -- step:     1
Initializing Density Matrix...
 
Attempting to read DM, EDM from TSDE file... Failed...
Attempting to read DM from file... Failed...
DM filled with atomic data:
<dSpData2D:DM initialized from atoms
  <sparsity:sparsity for geom step 0
    nrows_g=872 nrows=80 sparsity=.0432 nnzs=32844, refcount: 8>
  <dData2D:DM n=32844 m=1, refcount: 1>
refcount: 1>

transiesta: Initialization run using siesta

No. of atoms with KB's overlaping orbs in proc 0. Max # of overlaps:     224     104
New grid distribution:   1
           1       1:   24    1:    8    1:   68
           2       1:   24    1:    8   69:  136
           3       1:   24    1:    8  137:  203
           4       1:   24    1:    8  204:  270
           5       1:   24    9:   16    1:   68
           6       1:   24    9:   16   69:  136
           7       1:   24    9:   16  137:  203
           8       1:   24    9:   16  204:  270
           9       1:   24   17:   24    1:   68
          10       1:   24   17:   24   69:  136
          11       1:   24   17:   24  137:  203
          12       1:   24   17:   24  204:  270

InitMesh: MESH =    48 x    48 x   540 =     1244160
InitMesh: (bp) =    24 x    24 x   270 =      155520
InitMesh: Mesh cutoff (required, used) =   100.000   101.122 Ry
ExtMesh (bp) on 0 =    68 x    52 x   112 =      396032
New grid distribution:   2
           1       1:   24    1:   24    1:   47
           2       1:   24    1:   24  111:  135
           3       1:   24    1:   24  178:  193
           4       1:   24    1:   24  210:  224
           5       1:   24    1:   24   64:   78
           6       1:   24    1:   24   79:   94
           7       1:   24    1:   24  162:  177
           8       1:   24    1:   24  225:  270
           9       1:   24    1:   24   48:   63
          10       1:   24    1:   24   95:  110
          11       1:   24    1:   24  136:  161
          12       1:   24    1:   24  194:  209
New grid distribution:   3
           1       1:   24    1:   24   41:   59
           2       1:   24    1:   24   60:   78
           3       1:   24    1:   24  174:  192
           4       1:   24    1:   24  231:  270
           5       1:   24    1:   24    1:   40
           6       1:   24    1:   24  117:  135
           7       1:   24    1:   24  136:  154
           8       1:   24    1:   24  193:  211
           9       1:   24    1:   24   98:  116
          10       1:   24    1:   24   79:   97
          11       1:   24    1:   24  155:  173
          12       1:   24    1:   24  212:  230
Setting up quadratic distribution...
ExtMesh (bp) on 0 =    68 x    68 x    91 =      420784
PhiOnMesh: Number of (b)points on node 0 =                27072
PhiOnMesh: nlist on node 0 =               302728
 
ts: Using electrode: Right for Hartree correction
ts: Grid fraction plane  0.89574
ts: Grid point plane (Ang):       0.00000       0.00000      79.96558
ts-Vha: -0.27837E-04 eV

stepf: Fermi-Dirac step function
ts-Vha:  0.27739E+02 eV

siesta: Program's energy decomposition (eV):
siesta: Ebs     =    -43798.981952
siesta: Eions   =     55703.243667
siesta: Ena     =     12138.519450
siesta: Ekin    =     19463.768127
siesta: Enl     =     -1280.361064
siesta: Eso     =         0.000000
siesta: Eldau   =         0.000000
siesta: DEna    =       222.518765
siesta: DUscf   =       190.829783
siesta: DUext   =         0.000000
siesta: Enegf   =         0.000000
siesta: Exc     =    -14300.503494
siesta: eta*DQ  =         0.000000
siesta: Emadel  =         0.000000
siesta: Emeta   =         0.000000
siesta: Emolmec =         0.000000
siesta: Ekinion =         0.000000
siesta: Eharris =    -39026.107808
siesta: Etot    =    -39268.472099
siesta: FreeEng =    -39268.520307

        iscf     Eharris(eV)        E_KS(eV)     FreeEng(eV)     dDmax    Ef(eV) dHmax(eV)
   scf:    1   -39026.107808   -39268.472099   -39268.520307  1.632826 -3.902306 52.400673
timer: Routine,Calls,Time,% = IterSCF        1       4.667  63.86
ts-Vha:  0.32683E+01 eV
   scf:    2   -39312.740770   -39306.107953   -39306.167603  0.092583 -4.046211  6.644238
ts-Vha:  0.26189E+01 eV
   scf:    3   -39311.163622   -39308.661328   -39308.719495  0.007763 -4.074479  6.257928
ts-Vha:  0.11913E+01 eV
   scf:    4   -39327.066612   -39318.194696   -39318.252036  0.028549 -4.178872  6.715216
ts-Vha: -0.49150E+00 eV
   scf:    5   -39331.775931   -39325.199807   -39325.256878  0.024833 -4.257922  7.427186
ts-Vha:  0.10915E+01 eV
   scf:    6   -39323.584728   -39324.442431   -39324.499353  0.010044 -4.238203  5.856037
ts-Vha: -0.15978E+00 eV
   scf:    7   -39327.475572   -39326.001761   -39326.058577  0.009202 -4.254992  6.873309
ts-Vha:  0.21496E+00 eV
   scf:    8   -39327.088538   -39326.548592   -39326.605325  0.002096 -4.255334  6.336706
ts-Vha: -0.14349E+00 eV
   scf:    9   -39330.314273   -39328.446637   -39328.503111  0.007070 -4.265922  6.362160
ts-Vha:  0.13122E+01 eV
   scf:   10   -39329.415857   -39328.987531   -39329.043911  0.008292 -4.264935  4.767085
ts-Vha:  0.11984E+00 eV
   scf:   11   -39330.650761   -39329.858635   -39329.915023  0.007283 -4.273695  5.788806
ts-Vha:  0.35757E+00 eV
   scf:   12   -39331.486425   -39330.675996   -39330.732342  0.003132 -4.277770  5.358405
ts-Vha: -0.26017E+00 eV
   scf:   13   -39335.760133   -39333.251637   -39333.307854  0.010317 -4.295560  5.539171
ts-Vha:  0.10684E+01 eV
   scf:   14   -39331.709993   -39332.528319   -39332.584548  0.007886 -4.286344  4.281100
ts-Vha:  0.44323E+00 eV
   scf:   15   -39335.034603   -39333.797446   -39333.853697  0.005349 -4.295913  4.641422
ts-Vha:  0.70818E+00 eV
   scf:   16   -39335.806596   -39334.807379   -39334.863623  0.004124 -4.300887  4.138055
ts-Vha: -0.83091E-01 eV
   scf:   17   -39337.278785   -39336.066031   -39336.122267  0.006200 -4.311044  4.787271
ts-Vha:  0.68238E+00 eV
   scf:   18   -39336.118849   -39336.107409   -39336.163670  0.003778 -4.308482  3.911913
ts-Vha:  0.48810E+00 eV
   scf:   19   -39337.695788   -39336.905220   -39336.961504  0.003349 -4.313769  3.976484
ts-Vha:  0.10554E+01 eV
   scf:   20   -39340.006881   -39338.474356   -39338.530682  0.006813 -4.321075  3.103590
ts-Vha:  0.21332E+00 eV
   scf:   21   -39338.048233   -39338.279344   -39338.335663  0.004474 -4.322718  4.020149
ts-Vha:  0.55237E+00 eV
   scf:   22   -39339.855929   -39339.073194   -39339.129560  0.003446 -4.326165  3.476668
ts-Vha:  0.37512E+00 eV
   scf:   23   -39340.887207   -39339.985010   -39340.041417  0.004045 -4.332144  3.499818
ts-Vha:  0.11618E+01 eV
   scf:   24   -39342.265734   -39341.147620   -39341.204066  0.005975 -4.336428  2.490154
ts-Vha:  0.50766E+00 eV
   scf:   25   -39340.749864   -39340.959744   -39341.016202  0.003575 -4.337413  3.160621
ts-Vha:  0.63858E+00 eV
   scf:   26   -39342.174878   -39341.569649   -39341.626139  0.002782 -4.340580  2.893405
ts-Vha:  0.31366E+00 eV
   scf:   27   -39343.448937   -39342.517038   -39342.573579  0.004414 -4.347426  3.079718
ts-Vha:  0.94656E+00 eV
   scf:   28   -39343.120431   -39342.829451   -39342.886002  0.003690 -4.347124  2.361514
ts-Vha:  0.67356E+00 eV
   scf:   29   -39343.492717   -39343.163633   -39343.220217  0.001981 -4.350069  2.545831
ts-Vha:  0.81726E+00 eV
   scf:   30   -39344.632437   -39343.901871   -39343.958499  0.003547 -4.354127  2.267752
ts-Vha:  0.34947E+00 eV
   scf:   31   -39343.849209   -39343.881098   -39343.937722  0.002328 -4.355607  2.778006
ts-Vha:  0.73150E+00 eV
   scf:   32   -39344.845572   -39344.368511   -39344.425172  0.002826 -4.357303  2.254281
ts-Vha:  0.65183E+00 eV
   scf:   33   -39344.871710   -39344.620687   -39344.677366  0.001251 -4.359149  2.290794
ts-Vha:  0.95250E+00 eV
   scf:   34   -39346.926120   -39345.785217   -39345.841979  0.006047 -4.365610  1.788978
ts-Vha:  0.48764E+00 eV
   scf:   35   -39344.314227   -39345.058981   -39345.115692  0.003825 -4.362492  2.393566
ts-Vha:  0.65474E+00 eV
   scf:   36   -39346.146957   -39345.605767   -39345.662521  0.002844 -4.365414  2.096809
ts-Vha:  0.56099E+00 eV
   scf:   37   -39346.166892   -39345.887133   -39345.943909  0.001500 -4.367562  2.149485
ts-Vha:  0.94035E+00 eV
   scf:   38   -39347.464058   -39346.684190   -39346.741029  0.004420 -4.371572  1.649191
ts-Vha:  0.63946E+00 eV
   scf:   39   -39345.929391   -39346.310215   -39346.367028  0.002286 -4.370070  1.977320
